/*--------------------------------*- C++ -*----------------------------------*\
| =========                 |                                                 |
| \\      /  F ield         | OpenFOAM: The Open Source CFD Toolbox           |
|  \\    /   O peration     | Version:  4.0                                   |
|   \\  /    A nd           | Web:      www.OpenFOAM.org                      |
|    \\/     M anipulation  |                                                 |
\*---------------------------------------------------------------------------*/
FoamFile
{
    version     2.0;
    format      ascii;
    class       volScalarField;
    location    "36";
    object      p;
}
// * * * * * * * * * * * * * * * * * * * * * * * * * * * * * * * * * * * * * //

dimensions      [0 2 -2 0 0 0 0];

internalField   nonuniform List<scalar> 
146404
(
-3.74647
-1.49118
-7.10971
-2.46071
-7.43956
-3.78765
-1.70974
0.113864
0.014758
-10.7213
-0.74471
-4.77156
-1.78076
-7.46473
-3.55462
-1.9366
-3.88579
-2.7705
-2.45173
-5.4854
-3.81691
-6.66066
-4.29349
-2.03805
-1.60012
-3.69141
-7.07926
-5.4684
-2.25459
2.46054
-4.68929
-12.84
-7.38398
-2.14813
2.79663
-3.02338
-10.3552
-5.66211
-1.96061
7.23892
5.52148
-14.6984
-2.32276
5.61121
-3.05007
-12.0046
-6.71567
-2.58534
4.23497
-1.60277
-7.06183
-5.20625
-2.22051
2.61667
-0.84027
-5.23405
-4.01956
-1.77009
-0.102661
-0.380014
-4.23243
-3.10404
-1.47441
2.37292
-2.38671
-0.84266
2.18618
-4.19949
-12.1163
-5.95789
-2.81295
6.37678
-4.09182
-17.198
-9.31328
-3.06949
8.55044
-5.18599
-23.1015
-13.7456
-3.98397
10.4872
-2.76608
-18.1965
-10.9365
-4.0143
16.4979
1.56124
-23.559
-4.48352
13.7478
-5.70355
-21.8993
-12.7259
-4.89539
18.5144
-2.45902
-20.6167
-11.7616
-4.79648
11.8611
0.641486
-12.3577
-8.92292
-2.92577
7.90735
-1.42513
-10.1347
-4.69075
-1.68529
6.94103
-0.551304
-8.61809
-0.360222
1.88677
-6.02743
-1.36593
-0.630217
-1.33275
-4.1012
-8.0701
-4.57807
-1.54347
5.13114
-2.45743
-14.8742
-5.03267
-1.81357
12.2935
1.39689
-23.2419
-4.39213
-3.57366
17.3815
-6.59312
-25.2641
-14.6865
-3.88029
25.5886
-23.6182
-35.4809
-22.6991
-6.19274
38.5082
-29.9147
-38.8478
-21.5385
-8.41321
47.385
10.6817
-38.5261
-9.4487
38.1793
-25.278
-48.3793
-26.2014
-7.92489
26.2206
-20.8302
-48.2607
-24.4817
-6.15257
26.3099
-0.542457
-26.5627
-16.1334
-5.5567
19.2124
6.3864
-23.5066
-8.38631
-2.94956
10.0026
1.07137
-11.6366
-5.86293
-2.27115
4.04434
0.941055
-4.78942
-3.70659
-1.58532
1.57132
-1.74459
-2.16593
-2.11596
-2.68336
-3.9715
-6.72377
-4.89627
-1.99159
4.1572
-4.39979
-14.4814
-7.52039
-2.28914
9.80876
-4.35469
-19.3983
-12.1803
-3.46069
30.8092
-1.1285
-38.4918
-13.1864
-4.95683
60.2928
-20.4481
-70.7755
-31.6626
-5.70138
110.199
-115.89
-117.578
-43.8916
-10.1824
115.964
-139.563
-134.591
-42.1456
-16.1969
142.812
-143.639
-34.2385
-23.4556
118.686
-145.519
-151.568
-48.0255
-17.6963
94.8949
-99.255
-116.525
-52.1773
-17.0619
61.3666
-4.46736
-80.5009
-45.7932
-10.1794
35.3872
8.86619
-43.4458
-23.3193
-7.90823
15.9363
1.36372
-17.1836
-10.6955
-3.27928
9.67033
0.345375
-8.39349
-6.21899
-2.31669
3.27838
1.98612
-3.7057
-3.89241
-2.10239
-5.48323
-4.0632
-6.98011
-4.01816
-1.9942
2.98102
-5.52951
-10.79
-7.31804
-2.49133
8.32392
-6.2338
-23.6573
-11.0174
-3.23514
20.1248
-17.6803
-50.9775
-17.1688
-3.9356
64.2617
-129.569
-84.8662
-30.2143
-6.5032
147.628
-120.523
-129.55
-43.5363
-12.8835
317.812
440.906
-46.3286
-14.3967
387.024
439.302
440.66
416.428
389.969
436.146
439.863
436.585
313.404
377.023
435.683
439.301
427.618
310.098
433.223
-55.5719
-15.6616
180.345
-60.4221
-18.2071
64.191
-55.3771
-118.667
-38.4926
-8.65434
22.5225
-1.28376
-34.6195
-19.9439
-5.45166
14.467
4.71214
-17.6969
-13.1677
-3.59417
8.42469
0.81438
-7.11087
-5.72904
-2.49079
1.73408
1.333
-4.03086
-2.93582
-1.60418
2.45201
-2.47079
-13.4402
-1.83594
-0.892696
6.03046
-4.46121
-16.3675
-7.93982
-1.86342
15.0857
-6.71362
-27.6719
-13.5914
-4.45272
45.97
-67.707
-72.4186
-25.0299
-7.33597
147.353
-89.8206
-120.84
-40.0341
-11.6195
381.155
443.239
443.222
-13.5243
418.472
436.158
439.492
411.387
303.775
419.638
432.488
436.71
444.804
333.024
418.135
430.796
436.838
428.476
285.058
414.003
430.277
434.841
419.39
333.094
394.96
430.436
435.711
404.492
295.982
349.772
436.392
437.679
428.898
-16.7026
170.297
-68.3887
-133.197
-55.7327
-21.9889
41.2877
-27.8513
-66.9307
-35.8511
-8.15865
22.7491
3.55109
-25.8883
-16.9433
-2.81494
12.817
3.84548
-14.6866
-8.25449
-1.68349
7.69516
2.60374
-10.9193
-1.78843
-1.05556
2.4836
-3.3893
-11.6033
-4.50832
-2.26201
10.0168
1.27217
-18.8868
-6.36353
-3.52888
30.4008
-19.574
-6.63021
85.3363
-76.5266
-91.6406
-36.382
-13.5583
310.223
-112.221
-34.7198
-14.4202
419.308
436.813
441.565
397.852
281.289
423.171
433.469
440.605
382.249
265.296
421.419
430.314
439.329
437.149
300.634
419.703
427.619
435.336
439.299
217.078
418.317
427.904
436.817
462.14
329.706
413.138
428.208
435.83
352.193
307.378
389.973
430.749
432.058
434.217
313.192
303.463
431.485
437.169
-55.2979
-20.2978
84.1035
-64.2223
-136.243
-54.9111
-12.0986
34.061
68.3049
-48.0935
-5.22685
15.8136
7.83138
-20.3273
-9.42197
-2.63876
7.7459
1.60733
-8.35104
-4.19131
-2.06152
3.12208
-4.62089
-2.75188
-1.43685
-1.8488
-4.9134
-3.55196
-2.60077
3.9894
-3.66215
-12.4012
-6.56462
-2.08433
10.7113
-5.42328
-25.195
-12.7359
-3.41068
32.6704
-22.9698
-40.7314
-23.9074
-7.20952
97.7874
-126.662
-135.501
-38.8835
-14.5798
384.985
441.782
443.535
443.616
-14.9598
422.575
435.629
440.32
394.54
269.668
423.113
432.131
439.325
467.657
217.974
421.912
428.621
431.014
300.018
248.588
416.774
424.706
417.921
350.312
248.217
417.551
424.512
425.198
296.377
241.338
416.538
426.989
434.901
449.351
173.257
402.883
427.472
432.209
416.265
254.149
350.02
435.089
438.169
389.218
315.387
123.859
-89.0814
-139.096
-62.4048
-20.5486
25.4631
-3.64334
-39.7938
-16.1473
-5.35501
15.8866
1.79913
-14.2106
-10.3924
-3.50264
9.26918
3.66689
-7.01838
-6.07123
-2.61657
1.46681
3.42699
-1.86357
-2.662
-2.29443
-8.51358
-1.62366
-4.68949
-3.75777
-2.8275
3.97575
-3.7558
-12.1355
-6.3313
-2.05761
10.6627
-5.47165
-25.3644
-13.123
-3.62352
31.606
-28.496
-49.8063
-29.6437
-8.01681
120.205
-72.1412
-122.954
-47.5906
-13.2907
391.106
442.317
442.684
426.329
423.022
436.278
440.79
446.997
334.43
423.912
432.764
447.285
457.446
225.993
420.422
428.877
421.434
341.027
267.164
415.536
424.07
410.074
350.539
259.898
414.06
423.987
417.929
345.082
256.726
418.021
427.792
433.868
466.049
222.431
406.669
428.492
433.608
447.729
254.315
357.408
434.724
437.099
418.346
324.906
140.1
-57.9212
-139.374
-59.6322
-19.8767
23.7397
-4.36945
-32.5284
-17.7753
-5.26762
17.3949
2.18148
-16.7273
-10.6047
-3.52061
10.1925
3.72536
-7.03813
-5.9473
-2.64383
1.90122
3.80958
-1.75791
-2.95672
-2.34102
-1.74839
-4.57921
-3.1173
-2.68157
2.04866
-2.08481
-9.07864
-5.54742
-2.03469
10.0976
-1.30377
-18.1658
-11.2883
-4.09915
35.98
-10.4284
-37.7486
-21.4319
-7.93409
121.232
-140.108
-118.919
-49.8001
-12.5619
378.611
442.191
443.186
418.537
-12.7019
420.745
436.686
440.254
429.686
276.375
424.661
434.185
443.882
446.143
224.385
423.688
430.509
435.339
326.763
246.724
420.9
427.416
424.643
341.349
263.585
421.277
427.892
431.93
336.363
258.318
417.486
430.549
438.626
446.536
144.268
403.731
432.136
435.022
354.023
267.034
341.445
439.501
438.069
429.885
326.442
106.298
-75.7558
-170.426
-63.4262
-11.9221
34.1031
-0.493297
-40.499
-24.5024
-5.09888
16.5597
4.9948
-15.4283
-11.2016
-2.68421
7.95775
2.59471
-6.42949
-5.08479
-2.48291
1.39839
3.32586
-1.70126
-2.49837
-2.13499
3.81523
-1.83889
-10.58
-2.9358
-1.36214
11.5568
0.413711
-18.5178
-1.24972
-2.73348
28.9222
-11.9715
-4.57605
73.9073
-62.0837
-100.763
-42.1402
-10.4553
292.781
-130.001
-54.2298
-17.2255
402.089
438.477
441.231
444.952
295.347
421.02
435.326
440.6
435.737
229.058
423.213
433.656
439.267
449.436
338.244
422.804
434.91
453.604
452.307
241.57
419.564
432.37
438.683
437.317
264.883
413.001
432.195
436.364
375.733
259.299
389.481
436.944
436.239
374.561
301.794
295.014
435.549
439.982
-52.1135
-18.4989
63.2226
-76.3204
-97.9735
-47.012
-7.08261
25.7902
13.0764
-39.9574
-2.28326
13.7356
9.72184
-23.1365
-11.1187
-1.91634
7.2088
5.14023
-10.3875
-5.46859
-1.68862
2.48629
-4.69672
-2.70829
-2.04876
0.37068
-4.44869
-12.9636
-3.4411
-1.53285
4.7791
-4.81294
-12.8695
-7.16904
-2.58188
12.3168
-4.93737
-25.6754
-14.4026
-4.4557
34.1423
-33.3913
-55.2612
-24.4525
-6.05221
136.532
-73.9462
-124.736
-56.1291
-15.641
336.778
444.373
445.018
-17.3884
397.789
439.408
440.72
435.902
266.61
410.586
435.49
439.464
452.709
253.725
412.441
435.444
444.397
363.68
172.192
407.498
434.696
438.126
448.452
264.539
389.521
438.094
436.787
409.115
294.401
342.248
440.197
440.134
349.984
-17.5944
95.1307
-138.909
-111.338
-47.1122
-5.70784
14.4219
-7.18941
-31.0199
-16.4556
-4.93602
8.45885
-3.68455
-22.5379
-13.5716
-3.06371
6.50623
-4.1783
-12.6861
-6.30308
-2.15773
3.68752
-0.966092
-12.2435
-2.66683
-1.09141
-7.74814
-3.63155
-6.29236
-3.65197
-2.0849
0.100139
-4.08728
-7.90855
-5.71892
-2.45241
5.93653
-3.30854
-15.5401
-9.30352
-2.8992
18.3909
-6.26447
-24.684
-16.8819
-5.51016
48.903
-42.1532
-58.6444
-31.6864
-5.53055
118.892
-112.777
-105.821
-57.6093
-16.5346
284.848
441.043
-112.33
-47.9355
-18.7647
357.477
440.141
443.322
399.88
365.391
441.484
443.921
409.355
327.122
355.995
441.229
441.94
428.423
286.664
439.142
-39.0694
-17.5999
96.2463
-40.334
-8.04312
35.9061
-27.8764
-50.5127
-25.498
-5.53368
8.39238
-4.04264
-17.6211
-9.93102
-2.81902
3.29101
-4.10119
-10.6796
-6.25346
-2.11294
1.39363
-2.65964
-7.64399
-5.17095
-2.14954
-2.40851
-2.12062
-5.4995
-3.53969
-1.9118
-3.93004
-3.43613
-5.84528
-4.16554
-1.80787
1.44056
-2.85018
-9.93348
-5.45318
-1.95684
8.24482
-2.93744
-16.4769
-9.12817
-2.64061
23.872
1.77836
-34.6433
-15.4933
-3.7951
37.8548
-21.2426
-46.6293
-22.661
-5.4027
52.9713
-105.167
-81.2056
-32.2807
-8.20659
72.0652
-156.609
-83.1777
-32.3959
-11.9329
80.27
-178.99
-34.1529
-13.4479
72.871
-153.314
-90.9976
-32.6127
-7.56564
48.0972
-84.8862
-77.0513
-28.3825
-6.30978
31.6698
-16.4044
-54.3067
-27.2383
-4.43556
17.6622
-1.77668
-37.5999
-14.0918
-2.19445
6.4082
-2.27127
-14.7292
-9.21478
-2.025
1.45429
-2.97918
-8.56711
-5.77178
-2.30607
-1.83165
-2.41467
-5.7068
-4.53703
-2.33374
-1.47289
-3.72908
-8.1811
-4.08609
-1.6502
4.84711
-2.02911
-14.5832
-5.48449
-1.80868
8.41627
-1.18697
-19.5473
-4.03082
-2.78784
8.33413
-3.17352
-17.5585
-9.74162
-3.50013
10.6079
-5.60007
-23.8151
-13.3021
-3.8084
23.7207
-9.07861
-31.3915
-20.0726
-4.00693
29.65
-18.3495
-26.2152
-4.23729
12.1308
-13.3227
-34.0403
-12.0861
-3.89041
7.74446
-5.01896
-20.4372
-11.1129
-3.6071
9.36488
-4.20195
-19.6203
-12.887
-3.02502
6.76891
-0.354729
-21.7273
-8.72472
-1.66874
2.88716
-1.25565
-13.9575
-3.96673
-1.23325
-1.65297
-3.03405
-7.12523
-4.05973
-1.8287
-2.56464
-4.35318
-3.16096
-2.23959
0.752769
2.18451
-0.892542
0.707043
-3.14381
-8.63818
-4.41422
-1.86882
3.44907
-2.48213
-9.70336
-6.58256
-2.67006
4.02286
-3.85676
-12.2207
-6.23303
-1.85591
7.5148
-2.43753
-14.5319
-9.16704
-1.78084
11.2211
-4.97627
-11.94
-2.13166
3.98699
-5.9793
-15.8379
-6.07756
-2.17116
4.52911
-4.23902
-10.7427
-5.94031
-2.06365
0.81719
-4.49782
-10.4676
-6.53315
-2.52509
-0.744515
-4.81809
-10.0419
-4.83632
-1.73067
0.410267
2.62608
-16.9387
-6.99481
-0.542606
-8.36682
-1.33865
-1.11711
-6.69157
-2.51947
-5.19214
-2.86741
-1.50776
-2.7936
-2.62938
-4.98868
-4.15287
-2.09295
-0.541254
-2.36067
-7.04112
-4.61867
-1.94757
1.20622
-2.79565
-8.85977
-4.71566
-1.94755
4.44578
-5.64142
-5.20918
-1.60502
0.422006
-5.65394
-10.0467
-5.25645
-2.05344
-2.68201
-5.00486
-7.57046
-5.07469
-2.19087
-4.2268
-4.46044
-6.80576
-4.99431
-2.42967
-6.41277
-4.18174
-6.62695
-3.8153
-2.02992
-7.4688
-2.11759
-6.07226
-3.17054
-1.84217
-4.71457
-5.8433
-0.917695
-0.572043
-7.81867
-4.27098
-8.31627
-4.01302
-2.06656
-4.06534
-2.56754
-6.08619
-6.50913
-4.60603
-3.69721
-2.22699
-1.80867
-0.0904412
-4.8404
3.30202
-6.47574
-6.4542
-13.9749
-6.78738
-4.79349
-14.243
-5.09811
-3.76806
-2.1367
-4.53574
-0.841473
-1.81399
-0.124165
-0.810165
0.0187597
-4.50079
13.6436
-0.28319
-0.405505
-1.41021
-7.3539
-7.73615
-4.49708
-13.1835
-0.759027
-3.27152
-1.93848
-0.719055
0.119396
-1.75273
-0.113643
-0.988686
-1.5665
-6.66268
-7.05623
-4.42472
-3.23726
-2.212
-1.91643
-0.117848
-3.49666
-3.65496
-6.28856
-6.523
-4.55861
-3.80278
-2.19852
-1.90377
0.0475392
-9.39585
-3.6223
-4.92833
-3.46575
-3.71478
-6.09668
-3.66752
-4.82575
-6.32327
-4.60694
-5.69019
-5.24721
-3.87764
-2.33276
-4.53018
-2.95321
-2.03951
0.0114606
-2.41102
-0.318466
-4.1819
-3.24734
-2.12274
-2.64034
-3.54437
-4.9318
-3.33167
-5.66045
-5.76433
-5.48341
-6.88833
-6.16426
-4.73761
-2.97152
-5.35072
-3.36193
-2.37247
-0.349912
-2.5687
-0.430838
-7.52043
-2.46884
-1.83314
-2.13621
-0.722239
-1.35348
-2.58927
-5.8006
-3.22464
-5.301
-3.11857
-6.36464
-5.29325
-6.67904
-5.25307
-7.52039
-6.71585
-8.93397
-7.79492
-3.41372
-3.3423
-2.24805
-4.98088
-3.5401
-5.52253
-3.64157
-1.56928
-0.203318
-2.18188
-0.791495
-1.86884
-0.582987
-2.22668
-0.715822
3.45475
0.433218
-0.32166
3.00117
3.99771
-6.73709
-3.15608
-14.2442
-3.41924
-7.14585
-7.489
-17.0635
-5.55566
-14.3626
-7.04245
-8.58005
-6.80755
-17.6321
-9.43771
-2.38643
-1.66472
-1.37211
-4.11492
-3.32543
-2.31217
-0.823488
-0.356037
-1.0928
-0.368441
-2.03407
-0.757904
-0.651261
-0.48613
8.88571
-4.37875
-0.195029
4.9152
13.6279
3.0373
1.94823
-1.69325
-7.16027
4.17575
-1.10018
-8.97954
-7.67075
-4.92871
-10.6014
-9.50879
-7.65587
-0.880933
-3.08377
-1.91711
-13.8855
-2.22907
-5.54723
-2.94849
-0.175279
-1.56158
-0.402695
-1.47567
-0.650926
-2.1849
-0.93245
-1.12753
-1.25085
2.14004
0.717109
1.45096
0.278951
-6.77722
-1.38377
-3.89752
-2.70695
-7.26396
-2.55546
-5.22145
-5.35399
-4.30891
-3.64406
-9.38749
-8.10295
-6.78176
-5.78187
-2.48971
-3.02829
-2.47935
-4.6567
-2.81381
-4.42603
-2.9396
-0.378188
-2.22766
-0.0616595
-1.82675
-0.632979
-1.90725
-0.751288
1.71242
0.428073
0.643393
0.0922424
-3.46721
-1.54218
-3.33867
-0.825317
-3.07314
-3.30289
-5.26448
-5.27421
-4.22934
-4.36213
-2.33276
-3.92838
-2.77728
-3.73186
-2.42635
0.00569868
-1.74949
-0.774051
-2.00788
-0.394631
0.177609
-0.0676466
-1.93185
-0.170435
-0.802935
-2.78644
-0.295722
-2.41384
-3.88956
-3.98233
-3.55869
-3.18973
-3.52077
-2.28195
-2.50016
-1.86617
-1.90121
-0.308568
-1.52541
-0.291147
-2.66328
-0.141181
-0.178058
-3.0995
-3.64767
-3.20129
-2.79627
-1.85026
-1.67193
-0.198996
-2.00888
17.4417
0.0573617
-0.323831
-0.439251
-0.129566
-7.61079
-3.43789
-0.561525
2.33813
-1.02296
-1.32888
-3.61119
-6.75257
-8.29114
-4.95364
-9.46707
-7.15138
-5.31529
-8.7031
-10.3288
-7.95493
-3.65979
-2.10968
2.18405
-1.02117
-3.61602
-1.88144
-1.66539
-0.256398
-0.788874
-0.263369
-1.3394
-0.539752
-3.39266
-2.76193
-2.64995
-0.910442
-1.1877
0.0385504
-1.1163
-6.06591
-3.87411
-5.53628
-4.37812
-8.02318
-3.98106
-7.25865
-5.42759
-6.90173
-6.57851
-9.64125
-8.23867
-9.35627
-8.41912
-2.48792
-4.68741
-3.36709
-5.06075
-3.15476
-6.0068
-3.98214
-0.320929
-1.89892
-0.751343
-2.02337
-0.866131
-2.38632
-0.927171
-8.07046
-7.35189
-17.6377
-3.03462
-10.5964
-0.542364
-24.4104
-8.47714
-18.4852
-9.93646
-13.4912
-11.1084
-25.0173
-16.1509
-0.811897
-10.1246
1.34053
0.0481716
-14.319
-11.6108
-10.7498
-9.13887
-18.0939
-15.7078
-13.8003
1.75861
0.372086
0.23628
6.6975
3.91848
4.96511
3.63584
0.319145
4.28693
3.34247
5.15112
5.69147
-3.17979
-1.20606
-5.98137
1.35282
-12.0646
-3.93727
-7.90782
-6.55522
-11.9733
-5.49162
-1.82234
-3.72446
-2.0692
-1.53841
-1.5235
-0.294409
-1.36753
-0.568388
-1.23132
-0.40672
4.94871
8.4038
3.53833
-13.7456
2.10363
-7.04272
-13.8548
-6.40713
-7.80603
-2.93968
-4.47603
0.0632948
-1.44897
-0.254701
-0.115169
-0.286259
-0.272301
-0.0176068
-4.81602
-3.75189
-4.04783
-5.82434
-6.53342
-4.67481
-3.64569
-1.92628
-1.47695
-0.197158
-0.219942
4.21749
-3.17934
-3.10781
0.604279
-0.270865
26.623
-4.45855
-6.63075
-3.53385
-11.7103
-28.3237
-7.6281
-5.90212
-11.995
-6.75714
3.39754
-0.886962
-3.06234
-1.80775
-2.85688
-1.75307
-0.728384
-0.360312
-1.17475
-0.415123
-1.27891
-0.600235
-3.40723
-12.3798
-2.44286
-14.6206
-0.325325
-23.7772
-12.6932
-8.49221
-14.4461
-6.56474
-22.3817
-12.3409
-14.8685
-0.596584
-26.2698
-8.36549
-24.3104
-4.56311
-48.6308
-15.5664
-26.4843
-18.4185
-26.7669
-22.3214
-41.7596
-32.3433
-0.043683
-17.2956
8.28975
-2.01405
-31.6698
-20
-18.7911
-16.7627
-34.6378
-32.8165
-26.3384
-8.98364
2.29955
-13.5612
4.8524
-17.4901
6.96665
-14.8057
-8.22537
-13.6192
-6.22252
-19.7478
-14.1653
-15.3233
-9.15194
10.5245
-1.12755
3.08678
8.19316
8.31406
5.03443
4.39305
1.80811
-6.12027
4.2281
-10.3503
0.694279
-4.36191
-6.92888
-7.43157
-3.91561
-12.7521
-8.20474
-7.05097
-5.94276
-0.0784265
-1.25446
-0.299047
-4.40427
-1.45958
-2.84316
-1.54661
-0.319289
-0.384685
-0.221493
-1.36522
-0.652278
-1.183
-0.57925
2.80731
3.27686
2.61301
1.60632
-5.44812
1.29099
-3.33755
1.42637
-1.29045
-2.97265
-4.87734
-4.25164
-1.96154
-2.68164
-0.653959
-3.3179
-1.45702
-2.14583
-2.10391
-0.0746759
-1.28796
-0.293929
-1.86816
-0.156158
-6.80784
-4.10542
-3.90312
-4.62719
-5.2006
-4.52015
-3.8981
-2.89838
-2.43559
-0.347269
-3.76004
-3.44648
-4.97661
-3.79897
-1.94171
-2.50749
-4.13835
-5.24882
-4.03102
-5.12067
-4.14008
-6.06392
-6.40927
-5.51324
-5.62082
-4.98962
-7.39828
-6.69822
-3.80803
-2.71575
-4.23031
-2.78272
-4.80784
-3.31487
-1.68017
-0.674529
-2.19801
-0.344129
-1.86974
-0.685221
-14.8583
-2.98653
-27.4983
-3.86891
-13.5734
0.642638
-26.3328
-9.4842
-24.343
-16.7647
-16.5712
-14.0305
-27.0418
-18.1848
-24.8367
-5.87584
-22.3455
4.02709
-34.0143
-4.9595
-44.8134
-12.7029
-23.1656
-20.217
-33.3022
-19.204
-48.6152
-33.0142
-42.9548
-5.85725
-56.7414
-122.773
-137.292
-117.069
-122.99
-31.6342
-48.24
-35.6889
-76.866
-46.7627
-100.865
-39.0251
-9.64518
-42.9138
-80.5868
-112.837
-138.806
-37.6565
-42.9152
-33.8784
-38.7774
-108.273
-50.0001
-19.2236
4.80526
-21.093
3.48754
-51.2476
47.5465
-24.8569
-23.5883
-19.5837
-58.8313
-45.2459
-42.637
-22.2899
5.58358
-14.2815
18.0335
-42.9772
6.14602
-14.8309
-15.4436
-16.3464
-11.7395
-40.0166
-32.6742
-18.5201
-17.2629
3.76993
-3.22119
1.84897
6.34256
4.62235
3.59986
3.23632
-2.06931
1.30694
-0.861032
1.69003
-2.45045
1.78101
-0.66005
-5.01171
-2.26653
-2.8861
-6.25284
-6.39347
-4.02703
-4.57871
-2.37573
-2.36198
-2.31598
-5.51265
-3.76311
-4.25937
-3.35699
-0.650407
-1.98051
-0.338218
-2.42415
-1.00463
-2.10192
-0.891666
1.64783
2.08745
2.27232
-1.0228
1.74879
-1.23574
-2.53791
-3.01364
-3.71652
-2.35708
-3.71052
-2.68336
-0.0678493
-2.17008
-0.313258
-4.17641
-6.27643
-6.48323
-4.37589
-3.94337
-2.315
-2.34271
0.385448
-5.41673
-3.78175
-8.99038
-3.88619
-1.93575
-3.05017
-3.92183
-5.03418
-3.96104
-6.10881
-4.2826
-5.90448
-5.56868
-4.89636
-6.29643
-4.4248
-6.9864
-6.2729
-4.1527
-2.80282
-3.98626
-2.31521
-4.4697
-3.04589
-2.24033
-0.356137
-2.12373
0.127432
-1.72753
-0.59233
-39.3278
-8.59583
-60.528
-37.7108
-67.3023
-101.281
-135.943
-24.8787
-59.9211
-47.2319
-60.1524
-38.5698
-116.357
-55.9971
-75.1088
-130.274
-143.817
7.35084
-107.939
-163.272
-48.2746
-109.542
-66.4751
-57.998
-137.354
-62.2969
-147.977
-109.712
-166.618
-147.974
439.542
441.959
-75.9142
-139.315
-56.982
-135.973
-60.808
441.12
-22.5602
-39.5873
-23.1639
-43.3251
-19.6052
-18.7674
-2.72345
-11.5971
-3.50264
-14.7719
-4.57727
-13.9204
-1.27109
-111.839
141.058
-202.362
340.478
435.101
350.527
431.52
-166.363
-201.208
-131.916
440.767
441.736
438.444
440.699
-52.6453
-108.349
-37.3127
440.969
394.126
440.246
371.291
-26.7163
-32.622
-27.6245
423.701
-19.1491
448.74
-5.03681
-23.1275
-6.17091
-15.8325
-1.739
-4.57818
-148.285
123.837
-167.897
350.868
430.909
343.319
429.12
-174.143
-169.087
437.653
440.214
437.251
440.059
-36.8452
-133.763
-53.6279
439.722
408.04
439.68
365.143
-26.7332
-42.8972
-27.8287
433.267
411.166
-23.3306
-6.93286
-18.6397
-7.30972
-5.12828
-20.4503
-3.39495
-179.512
-88.117
-153.004
437.53
440.156
434.944
-62.6221
-138.888
-80.4918
439.655
390.617
-64.5787
-27.886
-48.705
-31.4145
422.237
-23.982
-55.2936
-24.9073
-6.42699
-15.951
-4.44684
-21.2438
-3.12171
-18.5638
-2.46973
-134.21
-87.8042
-132.664
-135.342
-57.1144
-160.171
-85.0889
-116.891
-81.5088
-126.36
-70.5893
-162.303
-75.2662
38.3061
50.8006
38.9109
106.512
9.32044
72.4323
24.1709
-75.8543
21.909
-57.8221
-24.538
-95.5118
-56.2973
-51.4621
-47.3841
-96.9
-66.0904
-26.2585
-41.2597
-21.2159
-65.7166
-36.0165
-51.4453
-26.6456
-35.8314
3.43671
-17.2058
-15.4001
-51.4086
-3.27023
-29.936
-35.5489
-24.5393
-26.0788
-59.6384
-49.1787
-35.5844
-33.431
2.63058
5.49731
3.9335
2.28971
2.38494
-0.446962
1.66036
-1.6163
1.45815
-1.90161
-4.18526
-5.09391
-5.40256
-3.3062
-3.77196
-3.04876
-4.60079
-3.36001
-3.04851
-1.94362
-0.882021
-2.04212
-0.785624
-1.5115
-0.426218
1.06137
2.06382
1.65757
-2.30335
-3.13566
-3.29609
-2.54452
-1.70546
-1.6953
-0.151251
-9.62863
-4.61384
-1.98888
-0.227132
-4.57897
-6.67797
-4.66663
-11.4226
-6.86295
-3.95764
-11.4809
-4.96593
-3.64201
-1.74795
-1.77145
-1.40757
-2.95704
0.181244
-1.05776
-0.251559
-3.49343
-0.845556
-1.95913
-0.621766
-1.3346
1.4512
-0.638174
-6.73515
-4.69723
-7.41682
-5.5162
-10.4067
-5.45286
-9.88735
-5.18165
-8.73218
-7.68157
-10.4078
-7.57857
-11.0214
-9.03814
-2.34897
-5.25351
-3.53794
-2.95593
-1.92054
-4.998
-3.16921
-0.295213
-2.05121
-0.745702
-1.24925
-0.495084
-2.00787
-0.816828
-135.641
-149.229
-146.052
-95.7901
-166.469
443.434
-51.8717
-117.923
-56.7872
-115.851
-64.7257
-49.3886
-143.038
-153.422
443.521
443.959
437.788
441.858
-53.9145
-141.045
-54.8149
443.785
-46.4764
440.004
379.346
-19.3594
-45.5453
-20.0699
-38.5875
-17.7749
429.327
319.788
-4.56453
-15.0753
-3.00608
-13.0443
-2.75245
315.775
439.142
442.015
438.33
440.933
435.521
439.06
-55.9177
441.146
467.552
438.748
410.317
437.876
419.36
-19.6246
431.243
410.702
315.436
422.74
346.993
-3.08456
-12.4156
-0.468626
316.929
15.3614
276.642
6.15607
441.3
437.338
439.098
432.889
437.652
432.049
436.201
408.966
440.279
351.121
437.415
417.024
436.508
446.836
456.422
359.959
446.526
312.648
449.665
246.29
-0.611284
336.942
-6.26058
247.203
3.6449
305.843
2.88823
438.281
436.294
439.621
431.022
435.456
430.342
435.204
411.33
438.948
396.824
436.465
438.503
434.555
479.899
328.515
416.94
327.622
429.026
298.895
374.667
293.212
-4.33422
-1.47835
297.987
297.855
2.95457
439.84
435.11
439.331
431.357
435.731
433.498
436.627
379.412
438.715
-63.2646
435.084
419.852
434.628
382.476
-53.1587
-22.347
355.449
221.157
416.039
277.948
-1.24954
-18.0993
-2.06486
236.223
3.2692
313.672
-9.88218
439.276
-59.2136
431.048
437.036
436.793
438.198
-65.9031
-73.8023
436.537
556.487
437.386
415.715
-22.6616
-65.707
-24.7905
410.091
325.277
400.28
-20.9523
-2.19128
-19.4332
-5.48478
304.804
-14.8249
-16.9268
-1.97035
-133.896
-152.543
434.392
438.491
-63.6852
-136.295
-127.003
-88.1943
437.932
415.469
-125.158
-84.0077
-30.5142
-51.7171
-32.1029
-22.6174
-55.7845
-41.3757
2.56109
6.15589
5.112
-2.67505
1.66878
-8.28901
-3.84567
-9.05663
-4.98286
-1.76657
-2.24106
-0.87552
-0.285695
-0.992105
-0.331858
-0.202507
0.829881
1.04395
1.89199
-3.87213
-13.7826
-0.742564
-11.5302
-13.2265
-3.58813
-11.8873
-7.47303
0.660596
-1.13361
-3.83083
-1.69966
-0.7911
-0.22907
-1.39453
-0.477885
1.99032
4.01117
1.00612
3.8159
3.11244
6.6637
6.37606
-13.588
-3.76291
-15.1581
-0.536171
-12.0845
-1.28017
-19.38
-4.75677
-15.186
-9.76293
-12.5468
-8.63571
-20.403
-5.68899
-1.65781
-6.90892
-2.27857
-5.93335
-1.68985
-0.617333
-2.65543
-15.9424
-5.92316
-20.382
-3.19318
-21.1616
-7.01613
-12.2249
-22.3031
-18.1842
-21.6807
-6.29124
-28.5685
-23.9374
-21.6254
-39.4456
-6.93722
-44.0849
-28.4354
-81.4961
-23.3402
-39.7144
-30.9837
-41.0554
-32.0829
-74.5392
-41.3611
-96.5592
-155.119
-154.127
-64.8276
-103.948
-143.439
-155.494
-44.3233
-109.292
-61.5761
-87.3317
-52.7179
-114.525
-49.0714
-157.974
443.428
444.374
-140.564
438.795
443.13
-54.0626
443.998
-46.6808
-118.985
-42.4278
442.395
465.241
-19.1911
-38.1571
-17.5308
-33.64
-18.4357
412.557
299.619
-2.98849
-13.538
-2.83605
-14.2686
-2.93784
312.444
-0.724839
441.104
422.385
441.887
376.004
441.394
386.983
-16.9543
438.581
316.291
355.303
275.347
382.134
155.33
-4.04014
305.809
308.197
-9.16565
287.08
-0.605798
428.535
438.098
362.874
441.412
417.216
438.587
460.946
311.199
421.958
302.463
427.122
272.681
444.58
244.248
3.27718
336.929
5.46312
290.038
-1.53495
227.438
-63.2194
416.969
436.561
444.548
437.322
564.423
436.316
628.928
322.105
448.317
224.911
430.689
249.702
438.895
286.751
0.972199
303.205
5.28261
107.547
281.029
-37.6813
434.258
434.531
418.993
437.255
474.828
436.584
433.117
272.589
367.005
305.155
434.403
12.2487
442.775
196.866
268.974
-1.42501
201.63
-67.5664
378.97
435.353
447.152
436.117
452.212
435.739
424.622
276.605
426.763
298.401
456.647
238.267
388.147
240.723
1.96362
337.175
-5.61029
175.121
274.317
-1.54411
415.963
437.364
413.552
435.314
212.898
433.494
414.964
292.642
422.149
406.028
163.94
435.637
285.897
-21.5038
0.401812
278.044
2.44983
256.421
3.96261
438.494
-50.6339
-138.848
434.709
434.85
432.647
438.121
425.131
-128.001
-75.7287
434.107
415.055
437.036
-21.5186
-57.9947
-31.1863
436.525
286.578
-58.2571
-27.6752
-1.96387
-22.7926
-2.82064
316.018
-1.36448
-22.5714
-3.16457
-145.403
-115.264
-168.641
431.629
-103.503
-192.138
-87.5743
-137.391
-93.5168
-67.894
-158.549
-82.0752
-35.5312
-54.1121
-33.5459
-58.8792
-31.4985
-48.4319
-34.9869
-59.8315
-2.52861
-28.9162
-68.3649
-135.496
8.93028
-55.2632
-55.2701
-37.8155
-36.3367
-112.612
-58.9731
-52.4045
-45.2633
-17.8235
2.54233
-14.0566
17.4531
-48.5421
9.25754
-23.3649
-16.2571
-13.6656
-45.6678
-36.9312
-22.4967
-12.7898
5.16394
-10.0674
4.50436
-26.7457
7.03809
-12.1746
-11.7372
-10.523
-6.31008
-23.9966
-18.0567
-14.1166
-9.18974
7.62283
8.55332
8.61633
0.984288
4.89552
-11.078
5.61488
-8.9486
3.68133
-5.05622
-5.96533
-10.7735
-7.88116
-6.63942
-4.60057
-0.415172
-5.27987
-0.768497
-2.35895
-0.915913
-0.549664
-0.852102
-0.526231
-0.81624
-0.354544
4.60127
3.52616
-4.5547
-5.35736
-3.99326
-2.81632
-1.21625
-1.06163
-0.191327
0.517524
0.0370253
-1.92358
-0.729708
-0.902109
-3.44178
-7.14128
-1.85755
-4.56058
-2.68179
-5.51856
-8.54169
-6.84957
-5.08259
-4.26312
-7.63159
-6.69224
-3.38418
-1.97697
-3.58424
-2.74929
-4.47296
-3.14328
-1.35993
-0.619734
-2.45147
0.261677
-1.99596
-0.812361
-11.0831
-0.732536
-15.1583
-2.09958
-6.46239
-2.36073
-8.91334
-9.3573
-15.6918
-9.4741
-9.65729
-9.05483
-12.7985
-11.2743
-17.8134
-1.26541
-12.5767
-4.94231
-20.0804
-10.7751
-17.8187
-16.2197
-24.9642
-21.0282
-32.8063
-86.8416
-9.33907
-36.4547
-65.8909
-106.653
-79.8863
-39.3055
-37.2735
-28.7042
-86.061
-45.6171
-30.022
238.183
-141.978
115.312
-98.552
315.496
438.615
-102.509
-155.118
-146.234
-139.103
-142.004
441.91
444.699
-45.9894
-120.724
-44.3523
-112.622
-50.7875
444.054
-26.2992
-31.1852
-20.0476
-40.3789
-27.3333
-21.5852
-4.46856
-15.416
-5.82434
-13.1079
-4.19062
-15.8616
-3.63618
-137.782
440.749
442.233
442.281
444.665
438.707
441.707
-41.7512
441.892
407.208
443.67
427.833
440.585
427.046
-18.3904
411.647
299.255
436.187
-18.7092
433.717
222.428
-3.06325
300.007
11.3951
-15.4753
-3.79892
275.893
-0.330338
563.415
440.121
430.153
440.581
361.817
440.03
363.366
273.334
417.617
259.115
422.171
283.746
450.693
125.466
2.71175
319.31
314.825
3.45669
263.043
-99.366
387.612
441.707
422.721
440.319
442.369
434.915
504.461
200.739
444.96
257.76
442.762
182.714
412.07
170.529
-0.246534
383.056
-20.0767
221.042
341.318
588.953
435.497
603.657
432.538
443.722
425.198
380.476
205.216
440.832
218.472
348.25
170.898
344.288
264.407
-25.324
239.181
-30.3153
235.968
257.603
459.306
422.863
418.568
422.031
418.111
422.975
418.471
421.036
433.982
427.402
434.275
425.191
423.69
425.22
428.384
483.141
435.911
504.766
425.251
379.941
425.307
359.649
183.159
459.978
77.7932
345.417
264.837
279.551
261.407
179.973
257.502
421.781
255.937
649.204
463.512
437.523
212.209
429.396
397.842
433.559
441.094
214.711
400.513
225.386
272.143
208.615
448.059
246.866
396.753
0.74785
226.29
614.11
266.649
384.374
432.732
416.344
434.099
560.453
432.781
404.394
197.625
432.388
325.408
446.216
242.132
428.493
201.275
-21.4893
282.618
-3.89018
316.205
235.092
-2.13194
434.371
435.267
437.774
429.216
433.087
434.968
436.614
443.872
436.941
432.303
448.592
435.634
363.302
302.124
-26.6302
428.763
230.582
346.113
295.704
-6.74484
-22.0866
-2.49161
258.313
-19.2623
297.362
0.728594
420.498
169.229
-33.2914
333.146
423.653
186.891
-81.7957
437.935
-133.507
-196.571
436.865
438.104
-99.2161
-190.024
-61.038
-157.284
-61.9087
436.849
331.236
-155.284
-71.2175
-28.8292
-54.8677
-35.1383
393.354
302.23
-59.3984
-32.2195
-3.98908
-20.0601
-6.89515
-1.32586
-21.367
-7.05376
-152.689
31.836
-96.2796
-178.006
-0.410739
-66.9468
-62.0592
-46.0812
-147.384
-78.102
-71.57
-50.8726
8.77569
-25.9026
7.32714
-40.759
1.79566
-16.5564
-24.727
-20.2793
-45.04
-34.0239
-24.3341
-23.4483
-17.0371
4.14613
-9.96532
3.87113
-8.35872
3.40987
-4.6811
-15.0869
-11.6379
-9.34196
-15.5785
-15.6404
-10.7221
-10.8651
6.61511
1.12286
4.47896
7.93536
6.28581
3.4583
3.83163
-5.03815
2.59141
-3.94828
2.53311
-2.85206
2.81127
-1.08131
-7.45039
-5.41507
-4.55236
-6.78721
-6.96149
-2.74702
-3.85166
-2.77555
-3.01374
-1.85296
-5.17867
-3.70673
-3.40526
-2.64833
-0.995241
-1.48094
-0.384009
-2.10386
-0.79403
-2.08881
-0.348233
3.96763
0.626819
3.61926
-3.84673
3.27068
-1.19666
-3.6559
-2.11902
-2.9752
-1.67699
-2.76112
-2.54773
-0.200825
-2.26603
-0.204654
-3.73729
-4.64013
-3.80893
-3.26986
-3.44778
-3.02957
0.235774
-1.89994
-0.21902
-0.760733
-8.47205
-1.8502
-0.00212249
-0.648804
-4.41504
-2.14985
-4.84708
-1.61031
-3.78783
-1.97493
-4.48921
-4.16378
-7.44203
-6.72395
-4.8414
-4.49817
-7.16592
-6.68349
-2.89577
-5.07776
-3.72296
-3.74381
-3.47801
-5.29097
-4.03047
0.21768
-2.37914
-0.96102
-2.84216
-0.356683
-2.64058
-1.05201
-165.977
442.278
444.55
-69.0432
-147.987
443.764
443.928
-50.9035
443.871
-126.891
-61.5511
443.546
436.464
-24.0282
-20.7594
-47.0638