/*--------------------------------*- C++ -*----------------------------------*\
| =========                 |                                                 |
| \\      /  F ield         | OpenFOAM: The Open Source CFD Toolbox           |
|  \\    /   O peration     | Version:  4.0                                   |
|   \\  /    A nd           | Web:      www.OpenFOAM.org                      |
|    \\/     M anipulation  |                                                 |
\*---------------------------------------------------------------------------*/
FoamFile
{
    version     2.0;
    format      ascii;
    class       volScalarField;
    location    "10";
    object      p;
}
// * * * * * * * * * * * * * * * * * * * * * * * * * * * * * * * * * * * * * //

dimensions      [0 2 -2 0 0 0 0];

internalField   nonuniform List<scalar> 
146404
(
-19.2574
-5.97857
-102.605
-70.8712
-40.1595
-19.8042
-6.15601
-99.8399
-75.1389
-29.5071
-5.38456
-108.644
-75.4616
-46.2295
-21.1837
-6.66526
-47.3798
-23.672
-9.61006
-91.5123
-67.9188
-44.4763
-18.7424
-5.19294
-82.8968
-64.4446
-36.6109
-12.7431
-5.78438
-74.8755
-58.837
-32.0675
-6.64784
3.54386
-84.1401
-68.8569
-37.8624
-14.9637
-0.818277
-90.7245
-80.2867
-30.8953
-1.87294
-90.1415
-83.7792
-42.8339
-7.59945
2.27919
-90.9233
-77.8308
-36.8319
-12.3075
-4.21791
-92.5149
-70.9669
-41.7197
-20.443
-0.955671
-102.381
-72.8107
-49.5825
-23.4837
-4.1338
-87.8986
-19.9019
0.122536
-84.1291
-70.2078
-41.696
-15.2629
-0.322458
-78.0084
-65.2874
-35.1913
-5.50237
3.28548
-75.7829
-67.3756
-38.6692
-6.90363
3.08261
-82.7492
-78.6059
-47.7311
-16.1061
-2.84341
-86.3524
-91.7482
-35.3077
-3.76186
-85.3279
-89.3104
-54.9562
-7.54948
2.28263
-78.1778
-75.6904
-43.4853
-8.63356
4.04944
-86.6777
-81.0107
-45.7519
-15.0332
-0.553242
-93.3179
-81.1098
-51.8785
-16.7844
-2.38467
-98.5146
-76.453
-25.5631
-1.54864
-81.6285
-50.9969
-21.834
-7.57802
-84.9338
-65.5863
-29.7907
-3.12913
2.18258
-85.4219
-74.3505
-44.3496
-12.0838
-1.26877
-84.6137
-75.623
-57.6637
-14.6319
-2.51264
-80.7464
-85.6193
-53.4744
-15.0385
-0.314088
-68.7281
-88.1798
-56.0553
-12.3396
-0.899254
-69.7927
-97.7984
-63.8725
-21.7302
-2.44708
-65.5453
-82.0855
-35.8812
-3.59504
-73.8343
-97.2388
-64.9142
-22.2386
-1.83943
-77.0457
-100.617
-59.6979
-17.1877
0.386521
-82.8098
-96.2518
-63.7505
-21.7328
-2.69475
-91.3896
-86.9157
-69.5376
-22.9999
-3.32808
-94.1305
-79.8455
-46.1419
-17.0672
-0.937661
-95.6276
-75.3304
-43.0707
-17.9447
-3.27838
-77.175
-48.3493
-24.1383
-8.7989
-84.3005
-66.3056
-31.5852
-10.0401
-4.72049
-74.9244
-61.1743
-31.5274
-2.23706
5.236
-80.7142
-78.7489
-43.843
-11.0038
-0.0934932
-74.5005
-84.4418
-59.5272
-20.0027
-2.67577
-69.8727
-99.6982
-76.2334
-23.2428
-6.40906
-107.974
-175.955
-75.1829
-25.4101
-5.07287
-106.863
-245.563
-91.3808
-29.8477
-5.39349
-91.3293
-248.235
-38.2302
-6.65755
-110.923
-257.908
-94.9892
-31.998
-6.75455
-85.8297
-196.463
-78.335
-27.0236
-5.43699
-67.2643
-105.162
-86.3748
-26.5522
-3.34457
-84.5723
-95.3487
-76.6132
-25.3558
-3.39289
-85.659
-74.2717
-44.712
-11.4496
1.18642
-88.0345
-69.7117
-37.4509
-12.2794
0.623279
-96.0795
-72.5582
-40.9849
-19.6904
-2.27802
-94.0721
-70.1454
-41.8783
-15.5608
-5.66324
-80.6017
-77.2735
-39.8214
-4.05563
1.9609
-73.2577
-63.4711
-36.7092
-6.60109
2.80432
-69.6961
-80.8778
-41.0942
-6.30577
1.9347
-67.6583
-143.477
-64.424
-18.6093
-4.11094
-112.024
-224.272
-87.4519
-25.5643
-3.67732
78.2794
222.864
-35.5579
-8.79688
154.107
224.63
225.473
218.852
160.956
221.182
223.852
239.037
160.634
142.209
221.325
226.652
221.845
69.7187
210.443
-36.6396
-10.4562
-53.5613
-42.307
-7.15629
-65.4662
-127.285
-80.7805
-16.8874
-1.23868
-83.2729
-78.7822
-53.0862
-14.9813
0.00683738
-90.8884
-91.2338
-54.8812
-18.1219
0.649343
-93.6756
-83.0063
-46.2569
-19.3148
-6.42149
-103.405
-80.2187
-54.66
-25.0412
-8.65153
-85.9714
-75.1859
-52.5859
-15.3873
-2.03768
-82.5411
-80.2909
-50.4213
-18.0692
-2.59071
-76.7155
-83.7848
-52.4861
-17.1595
-2.66121
-65.2246
-112.699
-59.8828
-19.4739
-2.32568
-111.96
-245.596
-77.5596
-26.6283
-5.65466
138.427
224.754
229.964
-8.79404
189.654
212.482
222.054
201.269
141.285
194.676
208.253
219.56
220.319
162.78
193.335
207.258
219.637
222.485
129.128
185.458
205.932
218.618
206.908
186.846
160.34
209.427
221.482
192.078
132.661
105.562
219.04
226.431
234.787
-12.135
-54.8491
-310.39
-111.701
-31.1047
-8.55315
-79.6754
-111.261
-79.1019
-27.7355
-4.25782
-93.2707
-91.6354
-64.4012
-22.5286
-4.02672
-98.7915
-88.7086
-60.9228
-26.3634
-3.57576
-102.588
-83.2748
-60.7671
-25.7777
-5.16816
-79.9459
-65.2598
-49.6956
-18.6109
-1.06745
-78.9728
-70.9472
-54.0467
-19.9404
-2.66843
-64.0902
-27.3344
-3.07557
-87.6146
-148.789
-79.653
-25.6555
-4.37185
78.6544
-83.1804
-32.5663
-10.3811
191.718
214.349
224.738
182.844
126.039
198.772
208.571
223.42
155.444
148.269
198.054
205.328
221.202
205.95
198.297
198.896
204.128
214.713
208.629
134.015
195.04
202.429
217.723
226.499
232.485
185.253
203.691
219.834
143.608
261.062
157.651
210.821
219.217
222.851
144.674
64.5472
208.809
229.26
-40.8789
-13.3785
-71.1415
-181.213
-102.437
-35.8634
-4.93409
-91.9584
-40.0389
-47.964
-4.34346
-98.2596
-87.9619
-69.5073
-27.4169
-2.64963
-100.187
-79.1818
-55.7352
-24.1143
-6.49835
-82.7361
-58.5193
-29.4031
-9.92423
-63.6496
-44.3698
-22.0246
-7.90336
-68.8319
-55.5125
-29.738
-7.30654
1.87135
-66.5254
-60.2764
-34.3303
-8.91991
-0.312382
-61.6724
-82.2512
-55.5792
-17.2809
-3.04368
-109.847
-204.052
-88.5516
-22.0203
-5.59216
156.985
226.896
229.272
240.426
-10.65
198.316
212.359
222.604
176.516
122.156
200.11
207.361
221.705
228.115
143.942
201.558
207.949
197.144
140.722
157.945
193.357
207.377
215.289
201.088
197.721
199.353
205.142
199.796
143.819
163.66
191.859
202.909
216.359
221.135
112.21
176.168
205.278
219.728
199.978
128.245
114.858
222.47
230.172
191.503
147.232
-64.9972
-277.548
-93.2432
-35.2887
-10.138
-88.0368
-96.1717
-65.6935
-14.5836
-0.833517
-86.8449
-78.5434
-45.8493
-13.4735
1.45455
-94.2237
-82.8639
-46.6571
-21.9787
-2.07733
-109.856
-78.6969
-59.4644
-28.4923
-11.849
-88.1097
-63.2915
-44.0299
-19.0961
-6.0553
-68.9387
-55.4021
-29.3292
-8.00487
1.46305
-66.5069
-61.5833
-34.7416
-7.29949
0.658772
-59.1234
-83.6734
-51.168
-13.6658
-2.3825
-98.5011
-248.536
-88.2981
-26.2399
-5.52382
163.731
227.425
228.527
223.976
198.299
213.132
222.373
228.483
181.239
201.828
207.471
227.337
214.451
124.154
197.419
210.089
216.743
197.256
195.357
194.476
213.046
241.385
227.822
226.493
192.711
207.76
213.489
197.051
189.769
193.211
203.217
212.157
240.267
142.684
180.686
204.493
219.877
233.478
134.785
124.22
219.615
230.72
227.289
143.895
-52.5328
-299.589
-93.3934
-33.2424
-5.78205
-81.7049
-80.8302
-51.5868
-17.0641
-1.56064
-82.556
-78.0477
-50.6205
-12.194
2.84785
-92.3763
-85.6508
-47.9189
-19.647
-1.24771
-109.57
-81.7806
-54.2864
-25.7963
-9.34374
-63.1929
-42.05
-19.8775
-7.94064
-75.759
-62.84
-34.3293
-14.392
-1.78545
-74.3245
-71.4276
-42.1119
-13.4267
-2.55621
-60.3158
-81.4673
-60.5803
-17.338
-3.9726
-100.784
-201.825
-83.8227
-23.8771
-5.63046
145.229
225.996
231.28
210.706
-10.9207
192.106
211.827
223.267
210.023
144.352
199.544
208.253
225.429
219.648
139.115
201.904
207.468
205.222
150.435
156.604
198.501
207.135
199.155
197.389
188.03
198.763
203.066
200.06
154.577
175.993
189.711
204.806
221.533
212.451
77.1561
174.469
207.785
221.037
148.288
135.389
101.114
222.721
229.424
233.504
164.214
-71.1293
-252.891
-103.359
-34.9269
-3.99968
-87.0015
-97.1468
-77.2976
-25.3935
-3.9749
-88.8081
-88.4345
-55.7562
-20.9398
-2.70737
-96.4487
-83.8031
-47.1777
-24.0145
-4.42864
-110.582
-79.7227
-59.0037
-29.2751
-10.8739
-85.1267
-67.0319
-43.1293
-16.7126
-2.99257
-81.2032
-75.4545
-54.141
-18.1125
-2.56495
-71.96
-23.3028
-3.75119
-80.1708
-135.121
-77.8292
-22.4763
-7.50431
57.0327
-87.3519
-35.8312
-10.6671
165.806
217.973
225.378
235.59
148.049
190.975
209.54
224.716
220.586
113.302
195.882
207.247
221.295
235.675
253.909
196.1
207.563
228.887
218.178
145.746
191.096
206.43
222.302
217.681
165.409
184.017
208.555
221.251
174.757
135.656
152.981
218.414
221.517
171.205
137.53
55.1842
216.217
229.299
-31.9904
-11.5203
-74.4165
-144.209
-83.5485
-27.5239
-3.53725
-88.3281
-80.9953
-31.1484
-3.94002
-94.3075
-89.8824
-73.3078
-29.5299
-3.89654
-100.918
-83.2745
-59.5287
-26.794
-5.39362
-81.5453
-58.1692
-30.5591
-10.4342
-91.4342
-73.1282
-50.7409
-15.6862
-2.30742
-84.4964
-75.7043
-44.1178
-16.1595
0.318437
-76.5511
-69.6995
-39.2438
-10.4329
0.00787763
-64.0134
-100.579
-60.9039
-12.3659
-0.920072
-101.133
-217.188
-83.9066
-27.515
-8.64689
91.3699
228.486
230.541
-11.8409
160.088
217.313
225.628
226.013
133.8
180.178
212.619
223.752
228.571
119.612
184.237
211.025
227.857
159.252
57.2252
177.15
212.248
222.417
226.957
122.399
152.568
219.894
221.403
207.178
127.257
103.61
223.429
228.029
141.514
-10.587
-102.994
-177.992
-71.4342
-20.8191
-0.91678
-75.7326
-73.8652
-42.8288
-9.52612
1.35922
-85.6696
-86.4127
-52.5809
-18.1832
0.292391
-90.6154
-82.0275
-47.6487
-22.3588
-5.30813
-99.8357
-79.812
-54.8028
-27.426
-7.32346
-98.3643
-72.2589
-43.8017
-20.4874
-5.53506
-84.6389
-72.0817
-37.9536
-15.3913
-0.271597
-78.3063
-64.1198
-35.5505
-9.34018
1.69015
-78.735
-87.1672
-53.0814
-16.9818
-0.933074
-62.6518
-117.247
-66.8087
-20.6751
-3.30203
-98.2637
-197.258
-93.3287
-31.7769
-5.54226
32.21
221.622
-99.5729
-35.5483
-9.67315
123.558
226.203
230.028
191.704
130.866
227.177
230.589
206.061
170.634
122.188
226.644
228.984
222.786
43.42
219.425
-36.4548
-11.4581
-92.5233
-30.5682
-3.30687
-68.919
-102.484
-67.1893
-20.0942
-2.77483
-77.9106
-69.196
-39.2038
-7.24584
3.05044
-81.7394
-69.3343
-35.225
-8.38744
0.485449
-88.2248
-78.0523
-38.1208
-19.4851
-3.7771
-101.421
-76.0732
-51.2247
-25.1896
-8.85332
-89.3881
-67.8429
-35.7536
-13.7692
-2.44502
-82.6131
-74.7511
-36.2712
-5.72364
1.87032
-84.37
-76.2757
-47.1229
-15.9237
-1.16434
-82.356
-88.7328
-67.3418
-19.2263
-2.60278
-72.2525
-102.615
-67.903
-18.4352
-0.665478
-73.7204
-135.58
-66.1021
-20.3102
-0.584249
-95.2877
-170.801
-71.6672
-22.8149
-3.83547
-98.1739
-251.482
-31.0952
-3.35663
-97.7509
-169.545
-73.5577
-21.5006
-2.12032
-73.6097
-124.343
-66.0514
-20.4694
-2.02584
-79.0169
-102.063
-74.6623
-26.9647
-3.12975
-86.0235
-92.306
-70.1542
-21.8821
-2.56874
-83.5681
-76.7181
-44.5516
-15.0146
-0.732362
-85.0112
-75.4384
-37.7655
-16.4839
-4.62313
-89.7558
-73.8777
-41.9674
-20.2764
-6.41937
-85.9464
-69.2738
-33.6604
-11.8653
-2.2521
-86.9234
-76.6952
-47.8866
-16.8899
-2.40286
-86.4926
-78.3814
-53.7745
-14.8963
-2.00792
-77.1834
-64.2556
-34.8454
-7.10745
1.32541
-74.7446
-68.2856
-36.8519
-7.94334
0.61139
-72.8306
-91.6596
-57.815
-16.8751
-2.56947
-72.3443
-118.605
-30.0876
-2.25095
-80.5192
-90.0309
-59.1069
-5.53906
1.59758
-77.9682
-69.5182
-38.2685
-7.79665
2.71234
-82.6189
-80.9208
-47.4841
-14.2193
-0.157362
-88.1108
-76.1873
-58.6578
-20.5699
-1.93579
-90.2145
-74.2847
-51.8035
-18.6793
-4.9559
-92.6394
-70.8967
-47.2071
-21.3456
-5.9192
-71.7255
-46.7314
-23.012
-9.71322
-91.6485
-15.3151
-3.97161
-85.8748
-69.2493
-35.986
-15.1814
-3.43966
-80.7355
-72.0173
-37.4631
-13.9291
-0.368111
-75.8606
-61.5176
-35.1973
-8.80638
1.87842
-82.1221
-78.3923
-45.2578
-15.0539
-1.38718
-85.9191
-102.913
-27.8919
-1.50264
-85.2864
-83.9893
-44.3214
-3.91703
2.58628
-81.8041
-74.2686
-26.7412
-2.2645
3.34953
-84.2113
-71.6739
-37.4781
-11.2119
-3.03058
-87.646
-67.9319
-44.4431
-17.7519
-5.69235
-91.8632
-68.2117
-59.0662
-25.0088
-7.70294
-50.9645
-19.9526
-8.72107
-96.5613
-68.1472
-41.1812
-19.7942
-7.25511
-88.5883
-66.998
-41.8428
-17.9319
-5.68084
-83.8004
-68.6523
-36.8831
-16.9055
-3.253
-88.289
-71.1941
-40.5195
-16.6021
-7.71923
-89.9356
-90.0306
-27.1057
-3.38711
-87.9719
-71.5824
-38.9919
-14.9431
-2.89527
-87.6698
-64.9336
-31.62
-13.3898
-3.58751
-89.3203
-66.274
-37.877
-16.9463
-4.29484
-93.0052
-70.3669
-44.2516
-22.1322
-6.37117
-102.422
-70.4561
-48.1637
-24.447
-9.00924
-102.778
-84.3718
-22.2621
-6.57208
-103.12
-74.1229
-46.9591
-20.6523
-6.88589
-20.426
-6.88898
-45.0567
-42.1416
-21.5763
-20.3587
-7.85342
-6.99846
0.384549
-105.121
-72.3013
-46.0275
-73.4695
-51.7115
-41.7095
-21.7898
-47.5018
-23.9723
-20.3531
-7.66281
-25.6473
-7.02116
-7.03804
0.196762
-5.94444
0.0399258
-105.348
-66.16
-82.2755
-74.9879
-77.9424
-53.4844
-49.0295
-25.3924
-36.0861
-6.69753
-21.2817
-9.06911
-6.42801
0.288913
-8.89069
0.0362608
-81.5953
-77.5467
-52.2884
-48.1448
-25.1752
-21.7354
-8.57286
-8.63757
0.0797707
-72.8044
-69.0795
-50.3455
-46.3141
-23.6707
-21.1789
-7.15162
-6.32265
0.0552035
-96.2744
-72.8735
-88.0747
-75.3477
-69.0939
-49.3697
-66.3793
-46.9836
-45.9299
-23.6794
-41.1907
-23.556
-21.4274
-7.75739
-19.0795
-8.97961
-6.90249
-0.277916
-6.29792
-0.936809
-87.2105
-75.2799
-83.8967
-76.8928
-65.0041
-46.264
-66.8038
-46.5281
-40.3738
-23.4608
-38.8716
-21.5965
-19.3028
-9.1934
-17.0371
-4.76368
-6.05855
-0.804872
-3.43031
-0.0195989
-101.468
-72.9647
-82.8442
-80.2572
-83.3076
-81.1964
-70.5601
-46.4154
-66.3667
-48.6586
-67.5741
-49.7547
-22.777
-39.2774
-22.9548
-32.8717
-22.5893
-34.6074
-25.3769
-8.05796
-20.4702
-8.9337
-13.3234
-5.12916
-15.2629
-5.63489
-6.08888
-0.291391
-1.21246
0.130356
-1.74267
0.16783
-73.1661
-99.5071
-72.482
-87.7873
-83.0205
-91.8162
-82.3701
-48.2139
-71.4888
-51.8625
-66.0396
-50.4377
-80.7507
-56.8823
-23.3528
-47.8724
-23.135
-37.4672
-27.2087
-54.0879
-25.5791
-9.3055
-18.2886
-7.62963
-17.5198
-8.91009
-19.0717
-8.138
-0.0776732
-5.03787
0.107512
-4.01901
-0.432832
-2.73805
0.730386
-71.1903
-107.974
-84.79
-92.3021
-76.9209
-94.0186
-92.4948
-76.3472
-57.6376
-80.7047
-81.3389
-58.9274
-47.6614
-27.3211
-29.91
-51.3542
-28.053
-7.90722
-20.7029
-9.3182
-30.0792
-10.2134
-17.9928
-9.38219
1.05407
-8.39567
-0.291484
-3.48176
1.05751
-5.10829
-1.11289
-81.3604
-82.2075
-92.8229
-91.8164
-93.4078
-91.2534
-53.8282
-77.0258
-49.5518
-74.0506
-56.2709
-74.4546
-54.7167
-26.9752
-47.1706
-25.2735
-43.8838
-30.9464
-38.1947
-25.0738
-8.43911
-23.421
-8.75453
-16.0625
-6.68244
-14.8166
-6.4629
-0.130421
-9.62418
-0.328264
-3.63477
-1.18106
-3.30769
-1.26998
-94.1033
-85.0297
-96.8821
-82.7466
-49.5425
-67.9837
-52.0189
-70.3073
-49.1771
-25.5043
-38.7815
-26.7707
-44.8869
-27.241
-9.18819
-18.6045
-9.92451
-20.8726
-8.19798
-0.133989
-3.99087
-1.72404
-4.44034
-1.1981
-97.5242
-82.9567
-104.601
-79.0267
-70.9372
-50.2149
-74.9722
-53.1457
-45.9385
-29.3751
-45.991
-30.1234
-21.9511
-7.23232
-23.5925
-7.79966
-3.88445
-1.54365
-6.05921
-1.11272
-106.197
-78.9133
-74.4539
-52.3315
-48.6727
-28.0687
-25.2914
-7.07513
-7.03828
-0.351304
-94.435
-57.1239
-16.2511
-2.82771
-1.45558
0.225921
-95.0435
-73.9027
-91.355
-75.3244
-86.509
-79.9661
-69.6293
-52.6937
-70.4678
-66.4983
-54.4501
-46.672
-25.9303
-25.8009
-42.1904
-31.7841
-20.3901
-7.29296
-13.7357
-2.53736
-17.308
-6.90536
-4.23602
-0.195769
-2.04516
0.236361
-1.99991
-0.163284
-75.6795
-84.1187
-78.9262
-84.4118
-80.677
-82.3502
-80.5668
-51.0623
-64.5521
-49.9927
-66.8142
-52.0266
-69.3363
-51.5045
-25.1954
-38.3758
-27.1653
-41.5057
-31.4742
-36.4218
-28.2683
-7.82953
-16.0519
-9.62058
-18.462
-6.30233
-18.287
-5.8236
-0.779304
-3.90329
-1.31781
-0.701929
0.538556
-0.976752
-0.120807
-51.7921
-83.5737
-57.6366
-73.7873
-60.319
-79.9302
-68.4535
-27.74
-55.258
-26.1259
-42.6237
-27.8676
-64.4982
-29.1232
-86.218
-61.0661
-91.5591
-89.8313
-67.8145
-30.329
-52.2633
-28.5358
-34.0008
-56.4885
-32.6341
-87.7
-100.27
-83.2374
-89.7543
-87.0169
-91.981
-89.4588
-81.4525
-94.8005
-89.1229
-99.8465
-86.5594
-54.4905
-74.1117
-59.4972
-77.4097
-65.9851
-30.3177
-48.0916
-36.4618
-57.3418
-30.6115
-7.89462
-20.8732
-8.95259
-21.3335
-8.08628
-1.38414
-2.78827
-0.795623
-3.53929
-0.0627391
-101.016
-82.5795
-76.657
-66.744
-78.7477
-57.432
-61.8929
-28.74
-52.2156
-25.6897
-25.4983
-7.75089
-21.8762
-7.86242
-4.25564
0.297768
-7.36066
0.25032
-92.5214
-72.3895
-62.9917
-41.4075
-34.1103
-18.0915
-13.4839
-4.63845
-3.39425
-0.246739
-91.5802
-73.1061
-90.1948
-73.7974
-87.9529
-81.6426
-46.4585
-60.9663
-45.8238
-71.252
-50.1919
-36.6854
-32.7576
-21.5467
-42.2979
-21.6561
-12.5749
-4.43439
-12.4899
-5.0172
-10.6915
-4.09572
-3.35349
0.375361
-1.06764
-0.427112
-3.08114
-0.533476
-71.3774
-54.546
-72.4733
-53.0814
-75.07
-65.667
-46.5256
-26.9228
-45.1717
-21.7695
-56.5053
-23.6293
-67.1014
-81.8405
-70.8114
-85.2705
-75.2779
-88.0372
-83.1643
-30.2879
-67.0868
-29.7245
-56.1931
-36.2501
-75.4171
-32.7472
-91.8051
-72.6761
-82.123
-94.0895
-85.0547
-34.7016
-60.7982
-32.8101
-36.8807
-70.9301
-33.5281
-59.3832
-79.3186
-67.657
-83.721
-73.4702
-81.2169
-62.9835
-30.9168
-62.1701
-27.6999
-62.9368
-34.97
-56.8548
-29.4774
-79.6196
-108.872
-83.6204
-96.9495
-88.6781
-97.2164
-88.5589
-77.2694
-58.5971
-79.6405
-63.1194
-72.2555
-59.8761
-26.8128
-49.9542
-27.0476
-53.6365
-30.2581
-47.4637
-32.2664
-7.94045
-20.6865
-6.57341
-20.6818
-9.07875
-17.563
-8.95461
0.981338
-5.92485
-0.0373924
-2.7422
0.495546
-4.09114
-1.27253
-84.8846
-98.7261
-86.0439
-81.4405
-54.0249
-75.0632
-55.7993
-77.0083
-50.9401
-24.6698
-49.3437
-27.663
-48.1732
-26.723
-7.82185
-20.7043
-7.4907
-24.4178
-9.63211
0.161955
-6.20957
-0.750542
-8.91666
-0.0730567
-91.4706
-74.3323
-64.3323
-44.4942
-37.501
-19.0093
-14.0994
-8.46728
-6.79933
-0.504832
-89.6183
-73.3607
-88.7421
-74.9097
-83.4026
-80.0798
-60.1548
-44.1597
-65.3047
-43.832
-63.5355
-44.2861
-28.9435
-19.2156
-36.3343
-18.5011
-31.0195
-20.9054
-10.4417
-4.2904
-13.3137
-7.65743
-8.30097
-1.85275
-1.7924
0.0566034
-6.65275
-0.469857
-2.23666
-0.316128
-53.4717
-75.7239
-70.4204
-73.968
-60.9157
-81.0825
-66.8529
-23.5115
-57.6792
-29.3842
-43.1071
-25.8248
-54.6071
-25.7189
-66.4411
-83.3603
-64.7055
-81.6835
-69.2947
-95.3478
-87.0615
-27.6504
-55.6233
-32.8858
-61.237
-26.2602
-70.9511
-32.156
-85.5774
-89.7698
-86.2468
-152.598
-110.809
-191.161
-107.635
-40.6738
-77.0714
-33.1026
-73.9089
-46.0599
-95.6115
-36.4194
-96.9765
-90.6742
-185.949
-197.74
-114.688
-37.5073
-74.1214
-34.4896
-37.8181
-90.6086
-39.9796
-85.2236
-86.1205
-79.3144
-103.074
-99.1006
-63.4426
-39.7488
-68.0198
-36.7072
-81.4634
-36.4376
-34.1221
-76.5316
-81.471
-68.0869
-87.9152
-91.6819
-89.536
-71.0768
-33.4427
-58.0066
-31.3064
-79.0754
-32.8281
-60.7412
-30.9167
-90.5954
-106.774
-83.474
-91.84
-91.0681
-93.9368
-90.1872
-57.3582
-75.6265
-53.1558
-80.0919
-59.8712
-76.2009
-57.3768
-29.7095
-47.1689
-28.4916
-40.5919
-28.0329
-39.6985
-28.7117
-8.13393
-23.1675
-10.8813
-17.2808
-7.68918
-18.2061
-8.17004
-0.959377
-6.75985
-0.344092
-2.67846
0.500555
-2.35776
0.341604
-80.7863
-97.5189
-85.7149
-51.2343
-75.9937
-54.894
-26.0715
-46.0733
-27.0647
-9.75551
-22.4118
-8.44733
-0.240779
-5.04259
-0.270688
-71.2877
-47.0563
-44.026
-19.4373
-19.1013
-3.97826
-4.69789
0.386628
-89.3418
-75.0084
-98.3107
-75.1269
-84.2623
-81.2865
-66.067
-43.599
-70.9451
-46.7258
-65.8396
-49.2987
-36.1132
-18.5411
-43.1528
-19.2796
-31.8888
-19.5265
-14.5048
-8.84402
-18.9572
-5.14751
-11.8968
-8.71776
-6.91645
-0.659621
-5.33753
-0.00650362
-5.27666
-1.81755
-76.1758
-99.1748
-89.4
-107.269
-81.4146
-178.782
-98.8172
-30.5216
-78.3759
-34.6814
-62.4719
-29.7778
-85.1857
-34.2034
-96.1953
-156.061
-114.29
-139.311
-309.815
-112.767
-36.3807
-72.0581
-46.0038
-37.7349
-90.6599
-40.3258
-121.286
-229.29
-116.627
-108.105
222.533
227.13
-45.9514
-89.8422
-40.5839
-95.6374
-40.4854
226.289
-12.2157
-25.8403
-11.8503
-31.8033
-11.1167
-11.8136
-1.00018
-4.57391
-0.642252
-8.04582
-1.82661
-10.207
-1.79172
-288.595
-90.5939
-367.812
109.75
215.963
127.653
216.032
-116.105
-256.264
-110.35
227.392
226.481
224.472
226.767
-40.9019
-98.8848
-36.4435
225.629
187.061
225.463
165.888
-13.1429
-27.2241
-12.0576
229.659
-10.95
255.378
-0.0978584
-6.22215
-0.847844
-10.3285
-2.23397
-0.884023
-285.111
-108.708
-342.625
127.362
216.575
113.555
214.489
-274.613
-120.784
224.49
226.688
224.48
228.124
-39.2609
-94.1177
-42.0337
225.278
200.843
227.216
153.653
-12.056
-30.9864
-14.3704
246.32
205.854
-13.5061
-0.791513
-7.06469
-0.628986
-0.620895
-12.1765
-1.26413
-121.529
-214.637
-123.089
223.567
228.123
209.992
-43.6852
-91.1596
-48.1606
227.234
176.467
-41.6447
-12.8676
-27.1334
-11.8941
216.622
-12.8243
-38.5869
-14.523
-1.01587
-4.92711
-0.914051
-10.4666
-1.93681
-11.1571
-0.666337
-139.738
-146.086
-124.538
-125.035
-306.008
-135.286
-46.5447
-80.1983
-46.3658
-111.756
-44.0106
-117.708
-37.6883
-92.8132
-75.0351
-84.7381
-60.2322
-199.754
-64.8725
-104.346
-106.704
-79.8079
-100.128
-129.206
-117.324
-38.2976
-85.7357
-35.8797
-94.0084
-42.0585
-12.0848
-29.3596
-13.0363
-36.356
-13.1974
-28.2747
-12.6214
-91.4469
-91.5735
-79.0383
-105.939
-103.912
-94.4963
-86.6476
-38.5531
-61.7902
-41.1853
-77.5983
-47.3686
-67.4466
-43.3247
-86.3337
-94.351
-92.5017
-101.285
-89.2002
-57.8226
-79.3807
-61.1888
-79.0813
-59.4273
-29.1153
-42.5732
-30.9286
-52.8641
-32.2912
-9.09571
-21.4111
-10.8149
-25.8939
-10.6265
0.0259942
-3.57776
-0.220231
-8.00903
-1.42469
-103.743
-87.7762
-82.3395
-58.3974
-55.4858
-32.9727
-25.6591
-11.7457
-8.35296
-0.659945
-99.118
-75.2182
-92.6566
-78.3619
-71.0888
-47.804
-73.5079
-59.4932
-44.3243
-19.5247
-50.8271
-23.4979
-19.1377
-5.64038
-14.1406
-5.38994
-4.72987
0.393051
-4.37041
0.0741032
-78.5321
-83.9502
-83.9179
-89.1781
-81.9353
-82.5852
-83.7297
-49.836
-72.5069
-56.0435
-69.65
-60.0178
-72.4278
-57.6824
-21.5288
-37.399
-20.1123
-45.5009
-28.9152
-42.1488
-27.9387
-6.82382
-9.10802
-4.49256
-11.4188
-4.57317
-15.0955
-5.13794
-0.501326
-2.76915
-0.954419
-3.1475
-1.48574
-1.80307
-0.486808
-105.188
-209.53
-105.194
-204.759
-99.3065
218.171
-37.8434
-79.6333
-34.0098
-67.9354
-39.9123
-33.7715
-102.961
-106.692
220.309
230.975
218.543
227.238
-33.9542
-93.7428
-39.0464
230.127
-34.375
224.824
184.859
-8.24305
-34.4937
-11.229
-29.3779
-9.27476
223.168
155.864
-0.254356
-8.7875
-0.742387
-8.32861
-0.634305
153.71
223.328
227.541
219.219
224.675
214.035
220.748
-37.8649
226.736
263.85
223.024
201.858
220.723
207.801
-11.1261
231.139
204.323
151.911
208.936
173.461
-1.10691
-9.16042
-1.10488
149.792
-0.25239
124.87
-3.24514
226.646
221.439
223.839
211.664
219.546
211.873
218.358
208.759
224.071
147.606
220.176
204.936
219.917
235.794
257.574
175.862
228.075
141.5
243.122
88.765
-1.18709
174.817
-0.0872688
98.8461
1.26813
137.287
10.8447
223.119
221.53
226.35
211.52
218.151
209.739
217.764
201.284
225.378
189.448
219.541
220.954
218.519
251.701
162.671
210.521
162.438
225.778
143.507
171.349
158.436
-0.219091
0.231186
134.614
161.095
-0.908804
227.246
213.822
230.417
210.205
218.34
212.771
221.741
167.174
229.324
-40.5632
219.473
198.76
221.369
180.728
-35.6298
-13.9018
159.821
91.3894
200.802
127.008
-0.563162
-11.7085
-1.20633
112.2
2.54553
146.249
0.96101
230.143
-318.117
207.366
224.421
218.448
227.924
-39.7866
-39.5833
223.763
316.284
226.323
210.096
-13.2821
-39.6258
-13.8039
199.421
142.135
193.109
-12.7025
-0.589702
-10.1528
-0.589142
146.72
-1.55614
-12.6785
-1.34268
-208.433
-150.354
210.783
228.306
-323.269
-145.979
-94.3561
-54.5206
227.023
202.837
-113.459
-52.0616
-13.9802
-26.3984
-13.4381
-11.3171
-29.0022
-14.0649
-88.1859
-102.475
-91.0972
-60.1018
-81.4729
-66.7472
-32.2618
-59.2456
-34.3266
-11.5599
-24.9682
-11.4458
-0.895049
-7.83323
-0.590192
-89.6094
-77.4842
-85.9187
-72.8534
-75.3285
-58.4873
-63.6797
-55.8327
-53.4109
-21.2493
-50.151
-29.1439
-14.984
-4.91515
-19.7813
-5.4573
-3.95387
0.373579
-4.65268
0.475842
-79.8247
-84.0601
-83.902
-83.0983
-75.677
-80.9518
-75.6332
-62.2091
-77.3451
-59.3355
-66.6134
-55.8924
-76.9376
-61.1506
-23.5574
-50.2713
-27.3534
-50.4071
-29.6134
-56.897
-27.5829
-6.09761
-19.8568
-7.03456
-21.3994
-6.15329
-20.2627
-8.37919
-62.3138
-80.9559
-63.492
-79.9739
-63.3528
-86.8126
-29.0436
-52.5116
-32.3759
-57.9165
-26.4525
-31.426
-72.6207
-89.2753
-80.3461
-86.8273
-79.6597
-104.384
-89.009
-34.3852
-58.6837
-37.6487
-68.6695
-31.2783
-73.4374
-35.0303
-90.1963
-167.298
-104.833
-127.512
-93.6099
-301.791
-104.514
-38.3698
-65.5545
-39.6429
-74.4876
-40.7625
-80.4246
-36.9181
-98.6246
220.376
231.135
-93.7785
220.751
228.377
-35.0744
230.292
-34.7632
-82.6932
-35.5396
227.299
240.643
-8.73372
-30.4834
-9.70966
-29.1139
-12.9609
194.937
144.976
-0.728197
-9.08979
-0.666786
-10.0245
-0.322613
142.993
-11.2247
224.375
216.22
225.246
161.442
224.599
175.779
-8.51773
232.113
154.286
163.568
130.445
172.554
59.8438
-1.25931
149.966
138.425
-1.7534
145.384
-2.97056
221.01
220.672
160.485
224.577
214.735
221.834
227.489
145.441
201.51
149.027
162.644
143.398
213.391
138.217
-2.24867
172.038
-2.06855
156.141
-6.11899
138.837
-62.921
205.341
219.163
229.578
220.016
316.941
216.301
388.578
154.802
237.489
88.8454
196.221
137.738
215.45
184.73
1.29307
142.078
11.4132
43.494
182.589
-37.2628
219.094
218.35
208.65
217.604
240.048
218.062
216.868
129.942
179.638
169.036
208.241
-33.4433
217.406
95.4483
142.65
-4.45386
117.752
-75.05
169.584
220.576
230.216
218.278
215.701
219.275
197.361
147.468
208.572
131.03
225.783
123.339
160.796
141.351
-0.967195
154.708
3.02257
107.947
149.975
-7.52734
207.788
223.853
208.186
219.085
7.84417
220.077
205.302
122.757
224.3
189.296
81.9945
227.226
133.673
-8.65443
-0.835428
137.943
-8.82066
118.791
0.692183
228.14
-342.956
-142.596
217.981
221.536
213.63
230.177
224.514
-113.309
-52.8367
221.372
207.438
229.019
-12.2998
-39.262
-14.1519
226.972
128.949
-41.2972
-15.5861
-1.55855
-11.2927
-0.311009
143.556
5.4602
-13.5527
-1.32998
-144.986
-177.742
-133.094
207.899
-224.281
-126.369
-51.4773
-87.1172
-55.0447
-47.8013
-87.3561
-54.2162
-16.5664
-30.5027
-16.3533
-42.4768
-17.3297
-32.6962
-19.3815
-105.933
-98.3271
-93.9056
-167.682
-117.749
-104.269
-96.7822
-50.5026
-69.8694
-45.4134
-94.3361
-44.6829
-86.3314
-41.8231
-83.5745
-93.3349
-72.8152
-91.5407
-94.7527
-86.6172
-40.1916
-62.172
-34.9438
-85.0219
-39.1994
-37.975
-71.4436
-82.6629
-66.8541
-90.5473
-87.5421
-84.43
-73.9859
-34.3707
-58.8075
-35.4131
-75.5464
-37.45
-64.541
-35.7613
-89.9989
-102.207
-94.261
-113.852
-85.9431
-66.0611
-83.3767
-69.5633
-82.6482
-68.4809
-34.3786
-61.6757
-36.7627
-60.3272
-35.7528
-13.4486
-26.7103
-12.2863
-28.2375
-12.5047
0.0987679
-5.42352
-0.865858
-8.28488
-0.943803
-86.3944
-83.4121
-65.2373
-60.49
-32.6998
-29.4827
-11.2984
-9.92203
-0.497539
-83.5629
-72.2445
-68.2813
-77.5928
-74.0034
-60.7217
-52.3595
-64.3173
-46.4691
-60.4283
-48.6951
-45.3045
-31.1582
-44.1479
-24.1854
-40.8023
-29.6611
-17.6073
-8.96801
-21.3423
-8.99383
-18.1865
-7.76197
-3.26758
-0.131363
-8.18582
0.469649
-3.00944
-0.179382
-54.5663
-71.7116
-59.2594
-63.0051
-48.6741
-68.2583
-53.8043
-30.9601
-51.6306
-26.485
-37.251
-29.2083
-38.9589
-28.2905
-63.413
-72.5523
-59.1275
-80.0256
-72.1388
-28.1387
-42.9784
-29.6044
-53.7919
-34.1197
-109.635
-88.7852
-81.8346
-74.7051
-138.08
-98.2697
-78.9148
-31.9488
-62.7789
-31.0435
-79.9096
-37.7198
-132.158
4.7059
-358.912
-97.5922
-191.893
89.819
217.234
-90.2221
-297.85
-95.6883
-187.368
-108.85
223.276
230.273
-35.8521
-85.3882
-37.8336
-88.1494
-38.6042
229.339
-10.7895
-28.6532
-11.1428
-27.6384
-10.8855
-10.3524
-0.295517
-8.85086
-0.677366
-4.08213
-0.00499951
-9.71146
-0.979751
-93.39
222.602
226.113
226.109
230.293
217.807
223.72
-35.3852
225.836
187.417
229.285
210.478
223.385
202.553
-12.8108
192.627
142.96
230.349
-6.12944
209.732
75.3202
-0.548129
141.842
-0.202959
-8.36903
-0.371319
123.373
-1.60806
314.879
223.185
201.244
223.073
148.989
222.478
161.922
127.138
203.776
155.311
200.637
127.2
220.969
42.5239
-3.45515
175.303
147.44
-1.45615
155.872
-69.5718
167.142
223.739
193.972
222.346
239.591
208.024
273.456
113.73
210.716
149.505
219.425
91.1092
198.016
68.8856
-3.31074
223.369
-48.9776
144.455
238.813
366.878
215.283
361.327
201.052
218.793
202.298
192.672
89.7996
212.936
136.143
154.563
79.959
190.604
184.445
-55.4664
142.533
-32.7207
144.996
180.52
393.152
200.215
196.463
199.845
196.555
202.348
199.752
200.623
210.541
203.216
210.825
206.185
207.16
204.803
190.846
235.079
215.811
255.811
201.813
195.117
196.618
159.963
104.259
223.202
-43.906
194.614
186.019
123.07
165.807
96.2274
183.042
340.256
175.449
365.675
226.909
221.889
8.43641
204.903
176.658
215.875
220.775
108.092
164.877
158.233
110.016
122.219
224.424
151.393
352.315
-15.3099
149.728
333.24
172.482
172.988
218.532
205.902
216.8
336.463
218.611
175.984
157.297
223.594
157.988
223.921
138.188
195.346
72.4696
-26.7097
128.528
3.06569
216.581
117.724
-5.49498
219.898
220.879
229.642
206.498
217.137
218.997
226.982
230.852
229.157
219.527
219.707
226.412
153.577
132.957
-13.8746
208.32
105.83
145.608
143.078
1.40513
-13.4147
-1.03351
134.349
-7.38316
142.711
0.0614299
187.842
-51.8812
-218.25
95.686
200.54
-38.0833
-357.622
230.347
-249.391
-130.535
222.763
230.739
-337.394
-133.144
-46.2812
-100.074
-47.9229
228.818
125.69
-107.731
-51.5873
-16.5552
-38.2143
-17.6697
195.251
147.358
-37.7021
-15.1797
-0.999816
-7.93067
-1.14491
-1.31289
-8.25547
-0.972927
-117.8
-86.8197
-254.176
-133.469
-103.99
-102.778
-46.488
-38.8351
-105.7
-49.9319
-83.7561
-41.9461
-90.7499
-83.5373
-100.402
-94.5389
-95.6738
-84.2424
-75.7839
-38.3777
-78.8705
-40.8903
-65.7069
-42.3034
-80.492
-86.0224
-69.5645
-89.8212
-74.0609
-84.9614
-66.5324
-36.2417
-60.9634
-35.2465
-55.7013
-38.8704
-48.986
-35.9745
-94.1799
-112.815
-88.8116
-97.7263
-95.2798
-106.322
-90.3462
-66.1373
-81.2143
-66.5593
-81.0467
-63.0384
-79.7827
-61.5946
-40.8373
-57.1694
-35.362
-50.3483
-38.5388
-56.8665
-35.8713
-14.1997
-27.6745
-11.8696
-24.1506
-12.3704
-27.5466
-13.2146
-1.63705
-7.81359
-1.48317
-4.74756
-1.44003
-9.78223
-1.07029
-85.9042
-110.462
-83.6456
-63.4959
-79.1188
-62.6558
-33.2729
-59.993
-32.5053
-11.3122
-28.9692
-13.2799
-0.610348
-12.0713
-0.598708
-51.7112
-48.6838
-22.0987
-20.9024
-6.00158
-6.14063
0.48388
-66.817
-73.9251
-72.4178
-88.0406
-65.37
-72.6025
-71.8741
-46.6476
-60.3045
-47.2206
-63.5288
-51.429
-61.5734
-48.9409
-24.0093
-35.6756
-25.745
-43.7614
-22.6274
-34.5816