/*--------------------------------*- C++ -*----------------------------------*\
| =========                 |                                                 |
| \\      /  F ield         | OpenFOAM: The Open Source CFD Toolbox           |
|  \\    /   O peration     | Version:  4.0                                   |
|   \\  /    A nd           | Web:      www.OpenFOAM.org                      |
|    \\/     M anipulation  |                                                 |
\*---------------------------------------------------------------------------*/
FoamFile
{
    version     2.0;
    format      ascii;
    class       volScalarField;
    location    "23";
    object      p;
}
// * * * * * * * * * * * * * * * * * * * * * * * * * * * * * * * * * * * * * //

dimensions      [0 2 -2 0 0 0 0];

internalField   nonuniform List<scalar> 
146404
(
2.61314
0.628276
-5.41225
4.19544
0.778837
3.21956
0.487762
0.84251
6.19676
-3.51363
1.65489
-5.03589
2.7859
1.57972
2.56847
0.655464
4.60461
3.58374
0.326579
-3.33031
0.916087
0.825061
1.68001
0.337908
1.31016
0.84289
0.0409768
1.44765
0.31167
5.97858
0.654348
-5.27658
-1.93766
-0.308085
5.80072
2.30924
-1.81199
1.22295
0.0683756
8.66876
10.3432
-7.91401
-0.755537
7.24243
-0.395886
-4.04089
0.583038
0.123595
5.17118
1.1372
0.104227
2.51168
1.34462
2.9594
3.21873
2.99953
2.93107
1.12957
-0.607476
4.34543
4.09176
3.40137
1.53348
3.81719
5.02851
2.02077
4.45405
-0.17572
-3.90163
0.32584
-0.396723
9.19748
-0.0278825
-8.27545
-3.4357
-0.76392
11.7115
-0.157069
-11.2706
-6.04306
-1.66464
13.7291
2.82818
-8.06493
-3.86312
-1.94566
17.9956
6.80379
-16.1952
-2.80548
14.4947
-2.00735
-11.7356
-3.9607
-1.42448
18.4151
0.213004
-9.70848
-2.18905
-0.848095
12.3217
2.94705
-4.44666
0.0810211
-0.42573
8.286
1.1037
-1.95307
2.87827
1.43155
6.94118
3.23238
-0.0412239
2.15258
5.96268
1.88161
6.67522
1.80411
1.29782
1.06859
-0.354647
0.900165
0.33744
7.48134
1.11616
-4.95194
0.427493
0.767168
14.675
4.03605
-14.8406
0.06977
-1.21873
19.255
-4.73862
-16.1777
-6.52706
-1.19373
28.8645
-15.1801
-19.167
-11.936
-3.8542
41.2806
-24.8035
-25.2269
-14.9862
-5.75885
46.8583
16.5952
-24.8826
-5.83876
38.9599
-19.4749
-28.3902
-13.8134
-4.24588
25.9667
-12.8072
-29.5357
-13.5022
-0.915402
25.5368
0.459552
-16.1613
-7.80445
-2.51631
19.2312
7.59937
-14.8881
-0.757699
1.00741
11.1349
4.66919
-1.47147
1.9317
0.356489
5.40923
4.86666
2.75399
3.56463
1.62517
5.78594
5.71767
3.6464
1.12341
0.416732
0.545171
-0.164572
1.31593
0.268383
7.74017
-0.0890631
-6.92037
-2.51672
-0.77196
12.9184
-0.711987
-10.8307
-4.16822
-1.52317
32.8499
0.648954
-27.8252
-6.4963
-3.69531
61.2445
-18.9517
-42.1139
-17.1869
-4.67887
91.2788
-131.577
-63.4108
-16.6225
-3.61919
108.394
-196.123
-77.8675
-21.2245
-5.88681
133.539
-188.294
-22.5549
-8.6907
106.438
-208.65
-82.1854
-25.1747
-5.40873
82.4605
-159.462
-64.5995
-20.3624
-6.21218
54.823
-10.8654
-49.9446
-21.3151
-6.15692
33.4875
9.62276
-29.721
-10.5484
-2.64826
17.8799
5.45862
-7.72828
-3.19196
-0.941431
11.8092
4.56996
-1.63832
0.439082
0.640305
5.02642
5.89846
3.33943
2.69036
0.842756
-3.11643
0.716995
-0.355981
0.752202
0.218853
6.40107
-1.05935
-5.08404
-1.17838
-0.2683
12.2362
-1.95771
-12.3574
-4.55156
-1.47087
25.6801
-8.41913
-21.4251
-7.15958
-1.90767
62.5508
-121.408
-43.662
-14.4103
-3.06466
126.104
-199.455
-72.7401
-19.6813
-4.04997
311.862
448.029
-19.4403
-5.02765
391.851
446.511
445.749
418.388
395.507
443.743
444.832
439.189
302.076
380.983
443.636
444.5
431.258
308.26
438.314
-22.14
-5.70754
171.059
-25.9549
-6.54954
59.3152
-56.5287
-49.0717
-14.0617
-2.55243
23.7285
4.73627
-17.3271
-7.51938
-2.21535
16.0978
6.11953
-8.58633
-3.83983
0.575265
10.0574
4.28851
-1.01849
1.81352
1.88338
2.96786
5.55532
3.25477
3.15702
1.96061
5.14012
1.41597
-7.28677
4.18007
1.81491
9.4358
-0.815064
-9.86687
-1.56224
0.644638
18.4771
-3.40404
-17.383
-8.06499
-1.73149
49.9141
-51.3692
-34.5196
-11.5006
-2.81738
130.767
-179.832
-72.2871
-19.8493
-4.44331
383.588
448.694
447.93
-4.60703
424.842
442.826
443.745
407.842
286.012
426.847
438.984
441.242
442.816
313.339
425.466
438.093
442.05
427.938
275.869
420.593
437.087
439.968
420.694
315.218
399.976
436.582
440.971
404.514
281.283
351.375
442.452
442.832
435.649
-4.06858
169.333
-131.773
-102.935
-22.7882
-3.85334
41.61
-25.012
-36.1827
-16.4115
-4.51942
23.535
4.8578
-16.2692
-8.46165
-0.17766
14.0904
5.7937
-7.56742
-0.444714
0.878783
8.76777
5.30056
-3.3739
4.47134
1.29115
5.89954
0.445737
-3.96626
0.412927
-0.0477804
14.0011
5.50115
-11.8837
-2.51645
-1.658
33.8126
-12.5581
-4.67467
76.3912
-83.3511
-57.1395
-17.8919
-5.71043
307.85
-65.0357
-18.0162
-5.54222
425.53
443.491
445.874
396.496
264.401
430.553
440.39
445.924
366.653
271.723
429.28
437.61
443.364
439.861
295.571
428.335
435.443
439.889
437.183
222.724
426.07
435.097
441.68
462.103
347.689
419.471
434.925
440.624
362.908
324.863
395.524
437.175
436.97
435.908
293.243
305.102
436.112
442.117
-19.9728
-5.03954
73.8949
-79.5719
-70.1983
-22.5576
-6.56816
32.3846
67.3942
-32.51
-2.56587
16.7497
10.7084
-12.6179
-2.60813
0.472418
8.96299
5.02048
-0.392523
1.25096
0.613179
7.30216
1.4688
2.55858
0.654927
3.26202
1.04088
0.212742
-0.246811
7.93598
0.973287
-6.00781
-2.4196
-0.223705
14.4866
0.126466
-11.8505
-5.95305
-1.49718
38.1367
-18.6414
-21.0009
-11.559
-4.42355
89.2778
-180.723
-70.3216
-20.9621
-4.97351
389.345
449.438
446.618
448.641
-4.50959
429.036
442.007
444.695
395.205
254.199
430.669
439.146
443.184
465.227
242.653
431.205
436.801
427.821
309.996
255.753
427.398
434.235
424.045
351.725
251.668
426.977
433.603
423.357
304.394
248.278
423.35
433.682
439.448
450.248
192.205
408.602
433.842
436.654
415.355
242.801
350.774
441.675
442.874
390.65
292.091
108.266
-194.792
-69.112
-23.0399
-7.26206
24.4012
-3.15605
-21.0754
-4.03493
-0.931457
16.9578
4.85419
-5.27312
-2.35895
0.0256186
10.7684
6.06494
-0.650209
0.44533
0.609814
2.5514
7.49164
4.2472
2.50678
0.572863
-4.4526
4.11762
0.166928
0.821081
-0.579721
8.08059
1.24429
-5.70904
-2.18754
-0.361236
14.6814
-0.1006
-12.3928
-5.89889
-1.55725
39.2876
-24.3851
-22.2318
-11.0381
-4.44708
110.994
-144.708
-88.2838
-20.8162
-2.93606
395.506
448.535
446.806
427.981
429.187
442.155
445.034
443.599
321.925
431.616
440.197
450.96
451.612
227.611
430.443
437.487
429.523
341.336
261.864
425.456
433.559
421.234
358.965
264.876
424.713
432.765
425.604
346.613
254.743
424.69
434.558
437.836
466.826
229.808
412.161
434.777
438.009
447.225
248.333
359.507
441.14
442.486
418.284
309.432
126.938
-128.314
-68.7156
-21.7739
-6.04444
23.0348
0.62158
-17.8933
-5.14663
-0.672377
17.239
4.61077
-6.63567
-2.28938
0.00875351
11.0424
5.85568
-0.590092
0.706471
1.22696
2.56388
8.2873
4.61817
3.20895
1.40092
3.91998
1.72937
1.58288
-0.43176
5.89572
2.71756
-2.3242
0.426255
0.0798672
14.5138
2.84955
-9.17187
-3.86649
-1.15692
41.1466
-6.67473
-21.9464
-11.2551
-4.70437
105.279
-191.56
-62.9453
-21.6248
-5.19332
380.245
447.923
446.506
417.074
-5.48092
425.929
442.297
443.548
428.925
263.354
431.027
440.407
447.564
448.773
242.485
431.656
438.132
434.209
329.339
253.423
430.52
435.042
426.389
346.264
262.134
429.387
435.367
431.261
335.682
256.568
423.462
436.83
442.375
446.769
156.759
408.78
438.229
438.59
355.704
261.725
340.343
445.086
442.661
434.533
310.922
92.8
-193.212
-82.3173
-21.4375
-6.62209
31.8311
1.36918
-21.9867
-12.3975
-2.70783
17.0718
6.16376
-6.45501
-2.87552
0.585049
8.63681
5.2805
-0.225847
2.04943
1.04328
1.53629
6.98357
4.78327
2.57354
1.31061
6.72153
2.66084
-1.75552
2.20565
1.22032
14.8795
3.92938
-9.15663
2.00815
0.248867
31.7765
-4.71684
-1.87992
70.2008
-66.2443
-56.5817
-17.4041
-6.89162
286.86
-71.1307
-20.9721
-5.76275
405.116
443.779
444.122
443.108
281.294
425.937
440.726
444.833
435.431
226.37
428.904
439.108
442.072
449.735
342.903
428.628
440.365
455.615
448.359
243.664
425.008
438.342
442.584
439.748
256.678
418.266
437.977
440.679
373.11
253.261
392.571
443.176
440.453
374.122
280.984
289.456
440.821
444.588
-20.5175
-6.19336
61.0134
-76.449
-55.0736
-21.2546
-3.55329
26.7813
17.726
-25.274
0.251376
15.2676
9.92508
-15.8805
-4.12308
0.257792
8.28598
6.93936
-3.33165
1.44837
1.67765
6.52658
2.06347
2.40346
1.53458
2.61611
-0.78019
-5.78175
2.08026
0.863543
7.36782
-1.21103
-6.03569
-0.857092
-0.59527
14.6793
-2.07221
-13.5628
-6.008
-1.81443
41.8995
-26.2953
-25.4339
-9.18813
-1.97428
122.241
-166.358
-77.0316
-22.245
-5.29376
332.47
450.459
448.325
-6.21319
400.078
444.656
444.332
434.301
257.745
414.897
440.537
442.984
450.294
244.311
417.142
440.792
447.972
355.643
162.625
412.282
440.166
441.887
448.372
258.003
392.117
443.764
440.803
410.404
275.199
339.891
446.321
444.375
341.902
-5.30567
84.8976
-169.435
-54.0198
-15.871
-2.04569
18.9738
-2.59224
-15.6197
-5.76387
-1.89966
11.4218
0.251854
-11.5053
-4.70502
0.30901
9.41232
0.325761
-3.69127
1.01494
0.991504
5.76811
3.18412
-3.08851
3.80257
1.2689
-5.81667
1.79673
0.962115
1.2909
0.160274
2.8293
0.685087
-1.63979
0.57009
0.688737
8.50961
0.307468
-7.75752
-3.16848
-0.813517
21.0044
-2.425
-14.0171
-8.59257
-1.77252
52.3713
-36.4651
-34.6321
-15.9099
-3.09658
101.381
-152.436
-62.5099
-24.6004
-6.15533
277.612
446.416
-74.9038
-24.4164
-6.2882
357.04
447.162
446.51
399.263
365.898
447.489
448.201
410.28
317.381
356.293
447.066
445.767
431.295
281.176
444.457
-19.265
-5.96844
87.5716
-20.6425
-5.84585
41.0937
-20.7653
-26.1055
-11.3367
-1.79343
12.5576
1.41321
-7.01588
-2.6697
-0.805948
7.44546
1.73903
-2.62304
0.178147
0.459251
5.12175
2.3405
-0.442326
2.55138
1.18776
0.464208
3.77657
2.11674
2.68009
1.49979
-1.44721
0.940557
1.20733
2.08483
0.993847
4.51855
0.599977
-3.25995
0.725973
0.353698
10.8954
-0.189679
-7.94504
-1.99932
0.189563
26.6919
5.06712
-24.9853
-6.84346
-0.71429
40.5864
-13.1734
-24.208
-9.58499
-0.701566
53.6632
-68.0441
-43.0094
-12.982
-3.24985
66.0179
-146.351
-46.0983
-16.2395
-4.22364
73.7021
-195.956
-18.7838
-5.02291
65.1995
-150.998
-50.0816
-16.0263
-4.50579
51.2136
-61.0308
-39.1919
-12.8829
-3.06348
35.0399
-15.8885
-32.0459
-15.1261
-2.34378
21.6767
1.9978
-22.1859
-7.24709
0.700769
10.8598
2.44211
-5.15932
-1.83808
0.187841
5.49231
2.66332
-1.15317
1.39726
0.902043
1.97204
2.6519
1.99806
2.58826
0.975274
1.46651
0.651009
-0.51822
2.26782
-0.0675083
7.79047
1.3588
-5.94854
1.70941
0.649943
11.8421
3.2943
-10.5683
4.03625
-0.234955
11.9708
1.41406
-7.75884
-2.6075
-0.567607
14.1346
-0.662879
-12.1561
-4.97653
-1.23497
27.8187
-5.52202
-16.7224
-9.57776
-1.958
31.4972
-16.3111
-14.9656
-2.7178
14.1962
-7.85168
-18.4625
-4.59586
-1.59109
11.3411
-0.0546965
-8.90075
-3.78658
-1.07909
13.0998
-0.222144
-9.42834
-4.47741
-0.725649
10.4068
4.12084
-12.594
-1.9952
0.57591
6.11578
3.50289
-4.07901
2.92091
1.42058
1.67176
2.17256
2.02865
3.42018
0.929688
3.61126
3.84251
3.49532
1.08201
3.58094
7.46935
1.53814
4.25694
2.46106
0.0216203
2.39836
0.783662
7.2845
2.72966
-2.73939
0.313614
0.507575
7.84804
1.10278
-5.4811
-1.29043
0.232889
11.2348
2.61904
-5.88348
-3.04363
0.455103
14.1654
-2.42247
-5.69607
-0.753927
7.14631
-0.751426
-7.43081
-0.101687
-0.072795
8.01088
1.06063
-2.5017
-0.395303
-0.0995007
4.54879
1.40825
-2.07371
-0.348426
-0.0579324
2.43373
0.911155
-1.27893
1.61229
0.137619
2.9811
7.00244
-8.60253
-0.0250038
1.57888
0.310843
5.11904
1.50959
-3.48515
3.68044
2.55393
2.85646
1.20218
0.771462
2.85921
2.7651
1.5233
0.312541
3.20961
2.10584
-0.721342
1.7536
0.754547
4.60385
2.13528
-2.12009
1.2672
0.532799
7.25374
-2.87445
-0.329279
0.346206
3.37992
-0.469711
-0.990568
0.976003
0.23409
0.2613
0.557597
1.37418
1.78756
0.261332
-1.13133
1.34301
2.46023
1.35683
-0.239323
-3.5012
2.24321
2.22705
2.52079
0.0150249
-4.21815
4.00951
0.824946
1.81078
0.421107
-1.99415
-2.34293
3.93733
0.989309
-5.29374
1.87897
0.752604
1.09004
0.230171
1.22286
-0.182358
2.38191
1.65161
2.8998
2.98684
1.07983
0.64559
0.342695
-3.94541
8.34861
1.73594
-0.0672516
-3.78743
1.41513
2.98358
-4.64726
1.20151
3.17567
0.956247
-0.114313
1.90985
0.683865
0.288999
1.41309
0.390007
-3.77515
18.8789
2.83806
6.24408
3.06304
0.977617
0.893317
2.35977
-6.03116
2.04085
2.88334
1.29944
1.61394
0.445839
0.840149
0.133543
2.37888
2.96907
1.82406
1.68095
2.40435
2.91597
1.35918
0.91871
0.138118
0.999045
1.42294
0.394362
0.274698
2.39929
2.54131
0.723779
0.519858
0.277559
-7.24398
0.774731
-2.46425
0.36674
1.43132
1.00794
1.33608
2.42927
0.933389
2.24348
1.83782
1.37796
2.3123
0.438036
1.18838
0.714221
0.32477
0.164083
0.0673622
-0.0483528
-1.64091
0.545288
0.679573
0.985817
1.2925
2.39445
1.04959
0.939436
1.95483
1.63703
0.36154
1.27094
1.50431
0.786533
1.14896
0.681299
-0.0545353
-0.206011
-0.291269
-0.112318
-5.65562
3.76878
1.18859
1.20685
2.37014
1.91862
4.00057
2.13164
1.1933
1.24986
1.29139
0.313819
0.90847
1.46774
2.56933
-0.114571
0.636971
-1.16239
0.141379
-0.966006
3.03771
1.06272
1.52362
1.44968
1.40009
1.37822
0.371637
0.0622919
0.255604
0.165952
0.225283
0.102268
4.20494
0.281745
7.96909
3.04469
2.85015
4.7811
6.54015
1.44653
2.85174
-4.05748
1.88508
0.267923
-2.58589
-6.69527
2.73586
-4.51407
0.038497
0.245954
1.61761
-7.09412
-2.27036
1.14293
3.32108
1.95294
3.15968
1.59744
2.00163
2.45543
-0.0210795
1.54707
0.362282
0.221177
-0.039079
1.8574
0.473506
13.3569
-4.54981
2.10414
6.00658
15.7389
3.97147
3.26399
2.46844
0.856821
9.00469
0.705495
-2.54247
0.873219
2.43806
-3.81639
-1.19987
1.77575
2.13223
3.34618
1.51394
-7.14772
0.977926
1.83238
2.19094
0.318468
1.00064
-0.0278038
0.835952
0.2715
0.151649
-0.168292
2.21783
2.40585
3.01842
1.92911
2.04958
1.36135
1.68243
3.45819
4.42836
0.558616
-1.05232
1.018
0.572419
1.8492
3.99978
2.89954
-0.648583
0.801862
1.13523
2.59081
1.14784
3.03426
0.740713
2.41352
2.50762
2.92393
2.32317
0.0189944
0.469651
-0.0354278
0.518806
0.145636
0.258552
0.0383847
2.18677
1.99161
0.532203
1.7168
4.92874
2.49578
3.32459
2.40224
4.55848
3.26356
3.57124
3.69023
4.3463
3.4841
0.988629
3.28271
2.21465
2.80925
1.68116
-0.0402947
0.190192
-0.152624
0.551123
-0.146579
-0.0349586
1.97758
-2.73745
3.52212
3.12562
4.95763
4.51272
5.87603
4.66294
3.54441
4.99682
3.95458
2.77927
1.83769
3.47408
2.18518
0.821449
-0.0284508
1.10822
0.288138
-3.42564
4.01593
5.05854
5.08297
4.48551
3.62963
3.4869
1.9345
1.2874
0.15913
-1.05889
20.2019
6.40905
3.5122
2.58518
0.426642
-5.62271
0.900213
0.646606
4.39175
0.894557
1.13276
1.37486
0.238214
-4.22445
-0.693659
-3.32079
0.0215923
1.90616
-1.8975
-2.35064
-0.218342
2.47089
0.93792
7.64265
2.88416
2.22072
1.87182
0.761202
0.0946004
2.14934
0.225034
1.06355
0.331018
0.293798
-0.0402202
0.742195
1.49048
1.66901
2.85205
2.09125
0.899341
0.977953
1.0635
0.0185368
-1.98885
0.458526
-1.43852
1.45667
0.872655
1.37771
-1.86538
-0.154166
-1.97981
-0.408688
0.532739
1.70888
1.15973
1.73725
1.53781
1.07131
1.38814
-0.0287701
0.359691
0.0850415
0.598687
0.327132
0.328913
0.2879
-0.997962
-2.60835
-7.86561
2.58737
-3.29112
3.65872
-14.9327
-0.354649
-8.29592
-3.06316
-4.83185
-3.16518
-14.9198
-9.22191
0.803425
-4.25731
6.63211
2.34385
-9.04507
-5.11527
-2.64232
0.775012
-11.7944
-8.8561
-3.32313
3.20097
-0.0505419
2.66123
7.29952
5.53906
5.50597
5.1844
3.14729
4.67524
4.63653
4.99813
6.63088
4.7683
2.78316
0.588139
4.33861
-4.39558
3.48821
0.662632
2.21021
-3.65339
1.76667
2.47305
3.6788
3.06361
5.57195
3.4848
0.163283
1.7278
0.37999
2.35587
0.117698
4.63106
9.48623
6.58191
-6.4041
6.88996
1.84296
-6.04934
1.85678
1.13069
5.42016
3.31823
3.88879
6.22779
2.99295
2.35997
0.359173
2.14133
0.404199
-3.00054
0.246319
1.42949
2.36857
2.16583
2.3574
2.21453
1.07657
-0.0273287
0.102729
0.824603
6.41759
-1.2822
0.835885
2.44609
1.91368
30.5495
1.36927
1.29224
-0.352811
-3.17845
-15.7114
1.6363
2.24188
-2.62112
1.59153
9.18399
2.88641
2.70112
2.1418
3.23573
2.54475
1.96798
0.348291
0.360336
0.125403
0.685009
0.043198
0.0885978
-5.79134
0.957782
-5.81674
2.3269
-16.7752
-4.72458
-0.367136
-4.94468
1.22289
-14.032
-5.47314
-5.88761
3.67527
-16.4049
-3.55279
-13.9685
-1.04621
-33.1133
-6.42756
-16.2411
-11.1601
-14.701
-12.3542
-28.6371
-21.9164
1.95872
-11.5915
14.2749
-0.433134
-21.5112
-13.4646
-11.4344
-6.40517
-22.6126
-21.1723
-14.0127
-3.30758
4.7802
-5.94943
6.28631
-11.826
9.32797
-5.79891
0.923507
-5.52276
2.13548
-11.4935
-4.38895
-5.08672
0.550321
11.6993
-1.27304
6.79376
8.76403
9.67597
5.82639
5.83986
6.31498
1.81567
6.57072
-2.11871
4.69303
2.68536
1.53602
1.0284
5.0837
-2.53455
1.23572
2.54167
3.55714
3.88078
6.55376
3.00547
3.63998
3.32509
4.40388
3.16127
0.771526
1.68143
0.322907
1.707
0.521524
1.31475
0.507901
6.38492
4.13238
4.87874
4.757
2.37214
5.01737
3.94356
5.57454
6.23817
5.78146
3.37551
4.26373
5.77192
3.97009
2.50318
4.2511
2.89306
3.65776
1.49783
0.25666
1.54554
0.135987
1.05538
0.250478
-4.19442
-0.117
1.21406
2.66301
2.09535
1.31001
1.44957
-0.179992
-0.49069
0.0456737
-1.52422
0.298214
-2.27922
-0.138459
1.02175
1.13771
1.4706
1.73174
0.650278
2.30036
0.849371
0.158921
1.50484
1.6779
1.95726
1.7242
-0.316988
0.59532
1.72902
1.35698
1.6744
0.530017
1.37179
1.5258
0.0636892
-0.0395048
-0.589325
-0.245384
0.611974
0.38875
-6.12389
-0.444903
-19.4156
-0.218655
-6.28294
3.31944
-18.3365
-0.759865
-15.2517
-9.0901
-6.64334
-4.03197
-17.8268
-9.48855
-17.0754
-3.93946
-15.1989
6.06616
-23.6503
-4.62196
-34.7601
-6.49553
-14.1462
-9.19615
-22.1895
-9.6624
-35.0476
-18.2788
-31.3884
-1.00399
-37.968
-98.9029
-87.42
-128.146
-70.4437
-19.3658
-32.8619
-23.5016
-45.5191
-26.845
-59.1423
-24.9812
-9.38528
-30.5762
-101.93
-128.32
-87.2888
-23.9594
-28.898
-20.2706
-25.578
-61.7267
-27.7995
-13.9266
5.51109
-15.0212
-2.37243
-37.1759
44.2167
-11.9508
-15.0246
-7.73912
-35.3847
-21.3511
-21.332
-14.979
8.15027
-6.21697
17.0991
-29.9429
7.62939
-7.00838
-5.92211
-6.59772
-1.78773
-27.2479
-17.4611
-8.91349
-4.79611
5.83834
-2.21613
4.51084
8.15162
6.92922
5.38626
5.61779
3.86956
5.58033
6.60592
5.27324
2.6719
5.45723
4.707
3.07678
5.76187
4.04753
0.330425
1.16647
3.02868
3.01707
3.17993
3.60567
1.28185
1.781
2.39638
2.90642
2.59877
0.636871
0.791001
0.234768
0.94852
0.85145
1.24023
0.710355
5.01671
3.71294
4.90846
6.31437
5.24528
4.90603
4.03995
3.96497
3.71341
1.42511
3.02469
2.24755
0.350757
1.29528
0.344104
0.951718
0.437181
0.267833
0.309668
0.583074
0.836138
0.520717
0.568213
-2.62153
-0.0920015
-6.615
0.375677
1.17473
0.380246
0.656775
2.08156
1.09167
0.677385
0.184804
0.00877994
1.69725
1.63201
0.325614
0.133186
-0.31955
0.407212
1.50312
0.228392
0.150213
0.555189
1.21813
1.10876
-0.878571
-0.0844443
0.372686
0.210999
0.32455
-0.0225159
-29.167
-9.47275
-43.5753
-37.8952
-42.3605
-141.223
-81.8531
-12.8023
-41.1483
-27.0008
-35.343
-19.4983
-67.0697
-25.8015
-48.3758
-127.789
-92.58
-37.9474
-193.563
-99.8122
-25.7698
-51.2023
-29.008
-27.3904
-73.1412
-27.3523
-119.125
-165.744
-110.438
-92.2364
445.399
447.18
-34.4124
-81.6573
-27.4054
-79.8358
-26.4208
446.247
-7.52678
-18.3328
-8.15525
-18.7974
-6.46394
-6.69231
-1.22854
-3.97624
-1.03684
-4.44653
-0.937348
-5.18783
-0.455724
-193.924
134
-260.351
341.132
442.084
353.906
436.83
-107.973
-227.789
-73.1843
447.508
447.326
443.941
446.392
-26.9322
-60.5699
-24.0061
446.325
394.724
445.381
375.413
-10.8286
-19.2841
-11.8184
426.774
-7.49354
455.231
-1.73541
-8.23749
-2.39287
-6.32634
-0.421628
-0.848276
-184.28
112.874
-228.552
354.141
437.297
343.839
436.643
-218.677
-101.243
443.948
445.694
443.749
445.669
-24.2784
-70.186
-28.9452
444.935
413.59
445.01
363.65
-11.5117
-23.9834
-12.6273
438.208
413.623
-9.53717
-2.7687
-6.96419
-2.3052
-1.44241
-8.04958
-0.680605
-113.609
-154.358
-115.439
444.447
445.645
437.793
-31.1778
-84.5944
-37.1326
444.931
393.36
-27.5623
-11.5015
-20.0494
-10.4321
426.422
-9.19958
-23.1981
-8.68493
-1.49998
-4.62197
-1.04352
-7.10086
-0.543589
-5.65411
-0.324082
-114.329
-89.6835
-99.458
-104.691
-164.274
-123.145
-35.3886
-59.9433
-33.5208
-85.834
-30.5504
-103.549
-31.3199
28.2874
46.2485
35.0416
96.141
-36.5825
66.0216
15.0009
-58.1747
18.9423
-40.1051
-33.8121
-66.773
-27.6747
-35.3653
-23.3541
-57.3762
-34.0389
-11.8206
-19.2554
-10.0444
-31.091
-15.9537
-26.3831
-11.8273
-27.2483
5.42885
-8.84926
-10.2161
-34.4356
2.50515
-16.8779
-18.5823
-13.3026
-11.5081
-34.1144
-27.6977
-17.8803
-15.4465
5.38176
7.34986
6.40729
3.68404
4.9017
5.17693
5.25752
3.32006
5.24699
4.94435
3.02953
1.50879
2.1345
3.98048
3.6945
2.36904
2.90553
3.02083
3.3658
2.00387
0.450145
1.79944
0.874529
1.03322
0.0893373
2.33504
5.09163
5.63501
4.60381
4.02128
3.14979
3.67588
2.60482
1.38865
0.0183974
-7.27699
-0.194936
0.303695
2.52979
0.482496
0.159722
-0.573932
-5.48277
-0.0221603
0.698786
-4.79267
0.499804
0.753186
0.830208
3.57009
1.7466
-0.428346
0.360586
1.09606
0.174982
-0.166844
2.19599
1.41987
1.86892
1.22947
4.623
2.59684
0.102039
-0.602049
-2.22474
-1.90083
-4.79459
-1.6542
-5.21976
0.201522
-2.44254
-1.06984
-3.27644
-0.843169
-4.27233
-2.01342
0.404234
0.431838
1.21836
1.83771
1.65222
0.481195
0.728151
-0.060702
0.357102
0.339702
0.850137
0.336467
0.0767303
0.358242
-81.9419
-221.871
-91.175
-193.955
-106.38
447.733
-25.9652
-67.1357
-26.5632
-58.3211
-29.808
-20.9913
-86.1571
-89.7696
448.153
448.901
444.545
447.189
-25.2887
-76.4658
-23.3319
448.292
-18.7122
444.229
379.994
-6.99219
-19.5688
-6.76001
-14.7309
-5.47547
427.011
301.919
-1.05051
-4.99824
-0.382362
-4.05011
-0.227989
295.948
446.103
446.924
445.22
446.533
442.47
444.545
-22.8434
445.507
469.822
442.781
409.392
442.207
419.535
-6.04568
433.782
408.193
296.818
422.426
327.138
-0.32971
-4.78646
-0.101161
298.503
4.38719
256.974
2.0231
446.983
443.442
444.64
439.643
443.432
438.144
441.892
410.254
445.273
356.715
441.999
418.131
441.809
445.944
461.211
349.367
447.165
294.051
449.001
240.343
-0.133301
326.707
-0.281744
235.169
0.920262
297.965
7.57068
444.523
443.257
445.079
437.79
441.702
437.101
440.868
415.041
444.249
399.993
441.743
439.113
439.63
481.082
317.813
420.866
320.567
428.292
293.316
376.565
287.672
-0.506955
-0.111055
289.123
286.256
1.55401
445.342
439.129
444.507
438.297
441.312
439.882
442.205
384.049
444.023
-25.2287
439.702
423.479
440.157
386.853
-20.6304
-7.76066
355.952
211.255
416.763
264.333
-0.185226
-6.5873
-0.242325
226.603
2.5738
295.231
-5.54018
444.968
-154.142
436.916
442.426
442.667
443.766
-26.1707
-30.3514
441.819
557.05
442.596
419.695
-7.82728
-28.2744
-9.77465
412.026
305.16
401.579
-5.89685
-0.206218
-7.32299
-1.18232
290.077
-6.35775
-4.94308
0.111322
-181.815
-127.979
439.954
443.741
-129.237
-128.076
-70.5616
-40.2698
442.994
419.297
-93.2347
-40.352
-12.6111
-20.4404
-11.1481
-5.75881
-25.2733
-13.2283
5.23414
7.33094
7.05548
4.26231
4.80009
-0.915483
2.82606
-0.912042
1.97962
2.77167
3.79315
2.68323
0.262384
1.34587
0.182901
2.20437
3.25973
3.92005
4.57685
-0.0414925
-7.90162
3.06541
-4.72044
-6.84379
2.6259
-4.68108
-1.95375
5.99115
2.34779
1.17693
2.13343
1.64249
0.381062
1.42338
0.190924
4.38511
7.17799
3.97413
6.80444
5.87019
9.87816
9.64926
-8.29369
-0.437194
-10.0399
2.85212
-4.62289
2.73167
-12.1845
1.63262
-8.68785
-2.15324
-4.78037
-2.4501
-12.7668
-1.54052
2.63234
-0.863596
2.10639
-0.14226
2.01757
1.34816
0.777462
-10.4056
-2.74325
-14.209
0.714156
-13.3611
-3.77441
-3.65227
-14.3406
-10.5241
-13.9611
-2.16738
-20.1288
-17.2522
-15.6069
-26.3508
-3.4112
-33.9838
-28.9548
-56.6583
-13.338
-22.4123
-16.2066
-30.2646
-20.7141
-48.6048
-25.433
-52.5187
-178.801
-101.682
-61.0996
-68.7134
-198.07
-100.874
-21.7689
-53.1986
-28.1427
-55.7851
-30.871
-66.509
-25.6252
-106.382
448.075
449.333
-88.7452
445.923
448.043
-26.2438
448.65
-19.5774
-70.6011
-21.9321
446.634
466.629
-5.8292
-16.0585
-5.99635
-18.2281
-8.44889
411.43
283.825
-0.766013
-4.68047
-0.168698
-6.05155
-0.494754
291.082
-3.75688
445.121
422.643
445.964
373.711
446.461
389.04
-5.70171
435.588
298.438
356.572
259.343
375.136
159.968
0.00444814
287.055
288.477
-5.86312
281.318
-1.19758
428.685
442.469
361.484
446.726
424.549
442.936
455.936
291.544
420.728
284.274
422.3
268.021
442.987
221.772
-0.601752
318.952
0.504736
286.818
-1.08095
224.212
-62.2401
414.836
441.671
444.311
441.485
554.549
441.015
627.067
304.888
448.606
223.825
423.873
227.651
442.826
291.625
-0.531228
289.397
8.38533
112.087
284.736
-36.8048
434.581
439.688
421.447
442.004
474.303
441.383
438.766
267.067
370.652
294.37
435.677
17.309
442.857
199.861
257.89
-0.525876
208.29
-39.6072
383.612
440.847
448.581
440.968
448.535
440.811
425.631
266.223
426.256
281.903
458.91
234.453
378.506
240.659
3.94605
316.968
-1.53425
182.006
272.16
-1.912
418.151
442.449
417.881
440.154
206.524
438.318
416.439
275.813
427.506
407.723
164.953
436.826
271.226
-9.48501
0.232902
258.055
1.92239
241.392
2.92425
444.297
-94.9914
-126.599
441.11
439.799
437.665
443.283
431.694
-97.1339
-37.1615
438.861
416.469
441.921
-5.38017
-25.1268
-7.15098
438.597
271.998
-21.5126
-6.72052
0.142269
-4.32661
0.299332
295.008
-0.336046
-5.29973
-0.382189
-139.935
-127.999
-123.344
436.234
-146.877
-117.3
-39.6681
-66.842
-37.3675
-27.3588
-73.6741
-36.2198
-10.381
-18.7843
-9.39877
-22.1058
-7.76249
-18.8091
-10.5941
-42.3282
2.35617
-20.7825
-78.5484
-81.5249
8.92374
-40.2112
-26.4297
-23.0218
-19.642
-63.0056
-28.283
-35.7238
-26.2152
-13.6694
4.76758
-8.94985
14.1504
-36.8819
12.0312
-13.0539
-9.09215
-4.11637
-33.4261
-22.1622
-12.6398
-7.54447
7.51407
-4.60546
7.87722
-19.0208
10.0751
-5.24033
-2.62769
-4.23283
1.202
-16.9152
-9.18451
-6.6636
-2.38864
9.14837
9.64294
10.4478
1.91241
8.63959
-4.05096
8.76765
-2.43112
8.13743
1.01034
1.56313
-3.25248
-0.862494
-0.498234
1.49682
2.7314
0.625412
2.89063
3.2177
1.36091
0.735365
2.01133
0.957753
0.740851
0.221297
8.29556
7.88292
1.78158
0.608172
2.08501
2.8579
0.971988
0.818782
0.247295
3.65381
3.30572
2.78557
2.93194
3.02649
1.32872
-0.937231
3.14869
1.41291
1.94056
-0.00922822
-1.38874
-0.702087
0.929025
-0.0238228
-1.52582
-0.858999
0.713529
0.837994
0.619845
-0.0192453
0.227126
0.614836
0.774108
0.328171
-0.070301
0.492088
0.507713
0.522816
-4.69289
2.97856
-7.70088
2.06313
-1.20594
1.99822
-3.22304
-2.07666
-8.28762
-3.5301
-3.36483
-2.67924
-5.48091
-4.46923
-10.6023
2.71325
-5.50725
0.184986
-12.1475
-4.86479
-9.47225
-7.70211
-14.2398
-10.9579
-35.5968
-59.0203
-6.40429
-22.1843
-72.2589
-66.7081
-53.9699
-22.6075
-21.4004
-15.1836
-52.0566
-24.6977
-35.4719
233.878
-210.032
102.574
-103.052
314.187
444.645
-63.5654
-211.36
-87.0469
-140.414
-84.9497
447.917
448.197
-25.0531
-70.1975
-21.9588
-62.1215
-29.3277
447.337
-10.1047
-16.5543
-7.68756
-21.8895
-10.7248
-6.77589
-1.71816
-5.5934
-1.05961
-4.74208
-1.62782
-4.75805
-0.265338
-83.1565
447.595
446.951
448.025
448.258
445.281
446.787
-20.2847
445.914
407.232
446.725
430.207
444.153
426.021
-7.7176
410.51
280.921
440.889
-6.08912
432.002
210.399
-0.337194
281.079
9.46733
-4.64812
-0.0462711
257.682
-1.93092
563.193
445.221
431.816
444.683
363.467
444.482
370.987
256.61
415.504
258.952
421.926
267.899
447.596
153.462
2.26159
313.942
293.577
-1.11384
272.203
-83.2626
379.844
445.993
418.496
444.784
448.834
437.627
498.637
213.424
444.648
246.421
443.387
202.052
409.55
168.701
-0.360269
363.13
-23.3539
234.584
344.34
590.567
439.993
600.202
431.674
435.636
424.37
383.964
205.02
440.206
218.304
346.241
170.787
347.913
261.013
-27.384
238.315
-36.5559
237.787
249.679
416.977
431.573
426.814
430.392
428.644
432.659
427.931
430.673
439.386
435.048
439.863
434.214
428.185
434.155
429.023
483.733
440.422
501.027
423.843
380.98
423.697
361.467
182.817
454.71
71.8803
350.119
262.191
285.34
260.537
180.813
248.945
382.966
259.744
594.614
459.06
442.767
214.645
430.872
392.25
438.353
448.881
218.369
400.297
212.347
273.519
201.914
447.029
254.498
427.316
-0.731712
234.225
560.217
275.543
396.204
437.552
418.846
438.655
577.02
437.357
403.79
216.321
432.857
306.435
442.638
247.603
426.651
185.653
-21.6503
263.487
-2.60727
330.559
221.893
2.47621
439.766
440.975
443.281
435.604
438.176
441.685
441.861
444.961
441.935
436.833
447.666
440.797
361.924
283.82
-6.28927
428.004
219.102
344.362
278.267
-0.171453
-5.13542
-0.320073
246.926
-9.9733
274.665
-0.131748
424.791
162.502
-78.367
333.972
430.583
176.515
-168.141
443.366
-197.058
-114.374
443.204
443.451
-212.091
-110.168
-22.898
-74.3875
-29.542
441.764
335.56
-76.8964
-30.1608
-7.09562
-22.3565
-10.3396
392.929
287.211
-22.6059
-9.1533
-0.640824
-5.57561
-1.6567
-0.363028
-5.72529
-1.80061
-84.7984
27.7969
-180.765
-117.95
-1.98263
-38.9463
-29.9313
-25.5049
-77.4628
-32.0588
-35.814
-22.0536
10.9549
-17.8034
3.64593
-25.8316
4.29457
-8.87452
-16.2154
-11.3184
-24.9052
-17.6721
-12.2995
-9.43608
-10.0092
6.46071
-2.94038
5.36996
-2.8216
5.75281
0.432246
-7.62197
-3.77167
-2.05232
-6.38431
-5.28494
-2.57844
-2.26048
8.12124
2.13144
7.20493
9.23466
8.01062
4.56711
6.25931
0.67673
6.80284
2.54865
5.59173
2.42935
6.41104
5.33219
0.236978
1.12386
1.33784
0.194956
0.241008
3.83059
1.55772
0.902166
2.08475
0.928258
0.773782
1.06371
1.71405
1.21985
0.497659
0.636321
-0.00651194
0.458913
0.481672
0.654382
-0.225571
7.34052
1.71636
6.95079
2.55742
7.28597
4.91253
1.87181
3.87273
2.31028
0.84388
2.42109
0.93052
0.0772661
0.498762
-0.00466768
1.98132
0.276524
1.02325
1.06019
-0.00565084
-0.252945
0.532906
2.97029
3.712
3.33728
-4.45653
3.99804
4.06653
3.58697
1.72313
2.30626
0.468536
4.02564
1.77423
2.59012
0.650641
-0.188165
-1.92436
-1.39284
0.115925
0.457179
-2.14277
-1.78013
-0.141344
-0.0858413
0.35847
0.480273
-0.112982
-0.488335
0.213368
0.51095
0.0309486
0.282683
-0.443049
0.0800792
0.0494111
0.377289
-100.309
448.639
448.729
-140.836
-107.55
450.178
448.412
-28.7959
447.471
-86.202
-31.2443
447.541
439.887
-10.3436
-5.72942
-21.9967
-8.38352
444.423
-5.93094
-1.63198
-4.47268
-0.320701
-3.18056
-0.430134
-4.64792
-0.0253559
448.288
444.07
446.63
449.204
448.145
443.304
445.587
429.643
444.417
457.08
447.126
437.46
445.332
420.83
-5.84154
430.868
248.33
444.417
342.255
422.122
292.812
0.09154
205.364
0.225034
325.45
-13.3828
414.389
443.868
527.541
446.552
392.335
447.525
375.242
219.856
448.658
246.752
445.106
261.481
463.317
249.081
114.906
-12.2737
326.995
-17.7281
257.657
-38.5524
382.291
431.462
444.686
448.079
398.117
428.69
377.441
249.502
345.188
234.791
470.842
229.807