/*--------------------------------*- C++ -*----------------------------------*\
| =========                 |                                                 |
| \\      /  F ield         | OpenFOAM: The Open Source CFD Toolbox           |
|  \\    /   O peration     | Version:  4.0                                   |
|   \\  /    A nd           | Web:      www.OpenFOAM.org                      |
|    \\/     M anipulation  |                                                 |
\*---------------------------------------------------------------------------*/
FoamFile
{
    version     2.0;
    format      ascii;
    class       volScalarField;
    location    "400";
    object      epsilon;
}
// * * * * * * * * * * * * * * * * * * * * * * * * * * * * * * * * * * * * * //

dimensions      [0 2 -3 0 0 0 0];

internalField   nonuniform List<scalar> 
3072
(
3.62763
3.03377
3.58403
3.57527
3.23447
2.7433
2.99257
6.74018
27.5689
43.171
50.4659
55.5766
7.42852
6.59534
5.42974
5.19858
5.95755
12.7983
22.0963
24.1326
31.8083
35.5802
36.6909
37.4118
9.2803
7.53718
10.2973
15.2065
18.0272
18.475
21.2293
24.3306
27.9373
29.1884
30.3789
31.3876
13.5106
11.0239
14.2738
15.7998
16.5992
17.9338
21.168
24.0238
26.0151
27.0545
28.0936
28.9589
15.4775
12.7684
14.6131
15.1526
16.2418
18.509
21.6724
24.1239
25.6409
26.5394
27.3582
28.0573
16.4039
13.0593
14.2944
15.0417
16.8485
19.7572
22.5598
24.5809
25.869
26.6889
27.3821
27.9544
16.5329
12.5561
13.5756
15.4604
18.2203
21.3563
23.9838
25.7931
26.9243
27.6597
28.2397
28.7337
16.576
12.09
13.9958
17.3426
21.3385
24.8276
27.364
28.9954
29.9522
30.5043
30.872
31.155
17.3482
12.9185
17.3268
23.425
29.0912
33.0702
35.4044
36.5628
36.9328
36.8356
36.5328
36.1686
19.3978
17.1078
28.9101
39.67
47.1274
50.9481
52.0224
51.4061
49.9014
48.0163
46.0912
44.2919
24.0861
34.4996
59.2704
74.7945
80.5716
80.5611
77.5079
73.0382
68.1248
63.2831
58.8214
54.8566
111.993
106.872
117.741
120.977
118.151
110.714
102.271
93.7003
85.5037
77.8796
71.0285
64.9827
58.6102
60.1785
60.3252
59.9822
58.5464
55.4236
50.9728
44.7809
37.3174
28.2309
18.6235
23.353
37.9073
38.3108
38.5214
38.8476
39.4843
40.6558
43.0232
46.961
52.0002
57.7673
61.8071
75.5556
32.0592
32.5024
32.8133
33.1408
33.8857
35.4622
38.3767
43.2913
51.1322
63.0488
81.4131
120.425
29.5812
30.0681
30.4702
30.9395
31.7549
33.334
36.2613
41.3975
50.0586
64.7719
92.4788
152.523
28.5896
29.0072
29.3647
29.8053
30.5799
32.0638
34.8436
39.8551
48.7475
64.9616
98.8277
177.959
28.4133
28.7944
29.1451
29.5871
30.3407
31.7607
34.4327
39.3059
48.0846
64.7853
102.359
200.911
29.1568
29.5315
29.8978
30.3469
31.0575
32.356
34.8081
39.3888
47.9435
64.5388
104.335
221.402
31.3989
31.629
31.8778
32.2196
32.8008
33.9018
36.057
40.2475
48.3775
64.6913
105.224
246.174
35.8184
35.5308
35.35
35.3594
35.6486
36.4158
38.1625
41.846
49.4355
65.3548
106.684
275.24
42.7124
41.3967
40.3661
39.6709
39.449
39.8405
41.0675
44.1178
51.004
66.3143
108.187
306.134
51.4623
48.6623
46.4351
44.7943
43.7885
43.7081
44.4871
46.8372
52.8123
67.29
110.176
344.691
59.8115
55.5668
52.1928
49.6774
47.9924
47.3337
47.7828
49.4598
54.0935
67.104
110.286
408.711
3.63615
3.03923
3.58875
3.57957
3.23823
2.74578
2.99405
6.73209
27.5521
43.1589
50.4557
55.5663
7.43497
6.59948
5.43268
5.20101
5.95967
12.7962
22.0936
24.1277
31.8014
35.5748
36.6859
37.4072
9.28575
7.53982
10.2992
15.2067
18.0278
18.4744
21.2247
24.3252
27.932
29.1835
30.3739
31.3832
13.5133
11.0252
14.2748
15.8006
16.5987
17.9304
21.1631
24.0191
26.0108
27.0502
28.0893
28.955
15.4772
12.7684
14.6131
15.1517
16.2388
18.5053
21.668
24.1198
25.6372
26.5357
27.3544
28.0536
16.4007
13.0588
14.2938
15.0397
16.8455
19.7538
22.5566
24.5777
25.8658
26.6856
27.3787
27.9511
16.5306
12.5552
13.5744
15.4584
18.2179
21.354
23.9816
25.791
26.9221
27.6573
28.2372
28.7311
16.5741
12.0894
13.9948
17.3414
21.3374
24.8269
27.3635
28.995
29.9517
30.5036
30.8712
31.1541
17.3474
12.9182
17.327
23.4258
29.0928
33.0724
35.4068
36.5654
36.9353
36.8378
36.5347
36.1701
19.3977
17.1085
28.9124
39.6742
47.1334
50.9548
52.0293
51.4128
49.9075
48.0219
46.0961
44.2962
24.087
34.5018
59.2755
74.8019
80.5805
80.5705
77.5175
73.0475
68.1336
63.2912
58.8286
54.863
112.006
106.878
117.745
120.982
118.157
110.721
102.279
93.7087
85.512
77.8876
71.0359
64.9895
58.6015
60.1707
60.3193
59.9773
58.5439
55.4218
50.9729
44.7812
37.3187
28.2323
18.6252
23.3553
37.903
38.3073
38.5188
38.8465
39.4839
40.6561
43.0243
46.9626
52.0025
57.7703
61.811
75.5616
32.0554
32.4994
32.8112
33.1393
33.8849
35.4621
38.3772
43.2926
51.1343
63.0521
81.4179
120.433
29.5777
30.065
30.4678
30.9376
31.7536
33.3333
36.2613
41.3983
50.0605
64.7752
92.4845
152.532
28.5862
29.0041
29.362
29.8031
30.5783
32.0628
34.8434
39.8557
48.7493
64.965
98.8341
177.97
28.4102
28.7915
29.1426
29.5851
30.3391
31.7597
34.4324
39.3065
48.0864
64.7889
102.366
200.925
29.1544
29.5293
29.8959
30.3453
31.0564
32.3554
34.8082
39.3896
47.9455
64.5426
104.343
221.418
31.3979
31.6281
31.877
32.2191
32.8006
33.902
36.0577
40.2489
48.3799
64.6954
105.232
246.194
35.8196
35.5319
35.3509
35.3604
35.6497
36.417
38.1641
41.8481
49.4384
65.3595
106.693
275.263
42.7161
41.3999
40.3689
39.6735
39.4515
39.843
41.0701
44.1207
51.0076
66.3194
108.196
306.162
51.4679
48.6672
46.4395
44.7983
43.7921
43.7116
44.4905
46.8408
52.8163
67.2954
110.186
344.724
59.8176
55.5723
52.1978
49.6819
47.9965
47.3375
47.7867
49.4637
54.0976
67.1093
110.296
408.751
3.63539
3.03761
3.58666
3.57703
3.23475
2.7433
2.99393
6.761
27.6036
43.192
50.483
55.5948
7.43528
6.59853
5.43185
5.1996
5.96025
12.8109
22.0998
24.1382
31.819
35.5881
36.6992
37.4205
9.2873
7.54255
10.3064
15.212
18.0212
18.4701
21.2348
24.3388
27.9454
29.1961
30.3878
31.3965
13.5211
11.0317
14.2768
15.7951
16.5944
17.938
21.1773
24.032
26.0232
27.0627
28.1023
28.9677
15.4891
12.7755
14.6145
15.1515
16.2459
18.5155
21.6814
24.1317
25.6483
26.5472
27.3666
28.066
16.4163
13.0649
14.2965
15.0449
16.8537
19.7646
22.5669
24.5878
25.876
26.6965
27.3904
27.9633
16.542
12.5605
13.5782
15.4638
18.2253
21.362
23.9897
25.7992
26.9312
27.6675
28.2485
28.7432
16.5821
12.092
13.9978
17.3449
21.3414
24.8312
27.3687
29.0014
29.9597
30.5131
30.8819
31.1658
17.3496
12.9186
17.3264
23.424
29.0906
33.0712
35.4078
36.5688
36.9412
36.8456
36.5441
36.1807
19.3941
17.1048
28.9059
39.6643
47.1221
50.9455
52.0236
51.4111
49.9093
48.0265
46.1028
44.3044
24.0815
34.4961
59.2644
74.7862
80.5645
80.5561
77.5065
73.0407
68.1307
63.2916
58.8315
54.8678
112.018
106.882
117.745
120.973
118.145
110.709
102.268
93.6999
85.5062
77.8846
71.0353
64.9907
58.6273
60.1953
60.3404
59.9971
58.5575
55.434
50.98
44.7869
37.3214
28.233
18.6241
23.3533
37.9162
38.3195
38.5294
38.8541
39.49
40.6606
43.0272
46.9648
52.0038
57.7708
61.8091
75.5581
32.0679
32.5107
32.8211
33.1481
33.8926
35.4686
38.3828
43.2973
51.1385
63.0557
81.4198
120.434
29.59
30.0768
30.4787
30.9477
31.7628
33.3417
36.2688
41.4051
50.0666
64.7806
92.4897
152.539
28.5986
29.0162
29.3738
29.8143
30.589
32.0728
34.8527
39.8644
48.7573
64.9721
98.8416
177.982
28.4227
28.8041
29.155
29.5971
30.3506
31.7706
34.4427
39.3164
48.0959
64.798
102.375
200.942
29.167
29.5421
29.9086
30.3577
31.0683
32.3668
34.8191
39.4001
47.9557
64.553
104.353
221.439
31.4103
31.6407
31.8896
32.2314
32.8125
33.9134
36.0688
40.2597
48.3907
64.7064
105.244
246.219
35.831
35.5436
35.3627
35.3719
35.661
36.4279
38.1747
41.8586
49.4491
65.3707
106.706
275.293
42.7253
41.4096
40.3788
39.6834
39.4613
39.8526
41.0797
44.1304
51.0177
66.3302
108.209
306.196
51.4739
48.674
46.4468
44.8058
43.7997
43.7193
44.4983
46.8489
52.8251
67.3055
110.199
344.762
59.8202
55.5759
52.2021
49.6867
48.0017
47.343
47.7923
49.4698
54.1047
67.1178
110.308
408.798
3.63633
3.03926
3.58885
3.57964
3.23815
2.74588
2.99465
6.73931
27.5665
43.1701
50.4658
55.5769
7.43577
6.60009
5.43322
5.20159
5.96107
12.8018
22.098
24.1326
31.8081
35.5805
36.6913
37.4124
9.28695
7.54109
10.3015
15.2097
18.0302
18.4772
21.229
24.3299
27.9367
29.1878
30.3783
31.3873
13.5149
11.0271
14.2773
15.8032
16.6013
17.9336
21.1669
24.023
26.0144
27.0538
28.093
28.9586
15.479
12.7706
14.6157
15.1544
16.2415
18.5084
21.6714
24.1232
25.6403
26.5388
27.3576
28.0569
16.4022
13.0608
14.2963
15.042
16.848
19.7565
22.5594
24.5806
25.8686
26.6885
27.3817
27.9542
16.5317
12.5568
13.5763
15.4605
18.22
21.3562
23.9839
25.7933
26.9245
27.6599
28.2399
28.734
16.5748
12.0905
13.9964
17.343
21.3391
24.8285
27.3651
28.9966
29.9535
30.5057
30.8734
31.1566
17.3478
12.9191
17.3282
23.4271
29.0939
33.0733
35.4076
36.5661
36.9362
36.839
36.5362
36.1719
19.3984
17.1095
28.9137
39.6751
47.1336
50.9545
52.0287
51.4121
49.9071
48.0218
46.0964
44.297
24.089
34.5045
59.2775
74.8021
80.5793
80.5685
77.5149
73.0449
68.1313
63.2893
58.8274
54.8624
112.021
106.885
117.75
120.982
118.155
110.719
102.276
93.7052
85.5086
77.8846
71.0336
64.9879
58.6116
60.1807
60.3286
59.9863
58.5514
55.4287
50.9781
44.7855
37.3214
28.2342
18.6262
23.357
37.9082
38.3122
38.5233
38.8503
39.4874
40.6593
43.0273
46.9656
52.0054
57.773
61.814
75.5657
32.0592
32.503
32.8144
33.1423
33.8876
35.4645
38.3795
43.2946
51.1363
63.0542
81.4208
120.438
29.5811
30.0683
30.4708
30.9405
31.7563
33.3357
36.2634
41.4003
50.0623
64.7771
92.4871
152.538
28.5894
29.0073
29.3651
29.8061
30.5812
32.0655
34.8458
39.8579
48.7512
64.9667
98.8362
177.977
28.4134
28.7947
29.1457
29.5881
30.3421
31.7625
34.4351
39.309
48.0887
64.7909
102.368
200.932
29.1574
29.5324
29.899
30.3484
31.0595
32.3584
34.8111
39.3924
47.948
64.545
104.345
221.426
31.4007
31.6309
31.88
32.2221
32.8036
33.905
36.0607
40.2519
48.3828
64.6981
105.234
246.202
35.8218
35.5343
35.3535
35.3631
35.6525
36.4199
38.1671
41.8511
49.4415
65.3625
106.695
275.271
42.7174
41.4015
40.3709
39.6757
39.454
39.8455
41.0728
44.1235
51.0105
66.3222
108.199
306.168
51.4679
48.6679
46.4407
44.7999
43.794
43.7138
44.4928
46.8432
52.8187
67.2978
110.188
344.727
59.8168
55.5723
52.1985
49.6831
47.9981
47.3394
47.7885
49.4655
54.0993
67.1107
110.297
408.747
154.245
146.573
138.66
130.547
123.279
115.622
107.767
99.8492
91.969
84.2195
76.9607
70.2959
95.7431
97.2724
97.6431
97.247
96.3919
94.6957
92.3222
89.0682
84.613
79.2404
73.7807
68.3303
67.7553
69.2047
70.209
70.8282
71.2969
71.2679
70.8212
69.838
68.262
66.2939
63.7841
60.5994
53.202
53.7624
54.0406
54.0896
54.0809
54.0131
53.862
53.5818
53.1282
52.5
51.6982
50.7668
64.4297
59.5961
55.7335
52.8457
50.9074
49.9044
50.087
51.1117
54.1658
62.5935
85.4747
168.185
63.295
59.1743
55.8904
53.4586
51.8141
50.8108
50.781
51.2981
52.9583
57.1038
67.3582
91.4872
57.4705
55.0329
53.0439
51.5207
50.3782
49.5328
49.1641
49.2281
50.0747
51.7709
56.4024
64.9506
49.9951
49.1668
48.1474
47.0845
46.0717
45.2198
44.7177
44.663
45.3169
46.2107
48.5599
51.9432
154.237
146.569
138.658
130.547
123.281
115.625
107.771
99.8545
91.9748
84.2255
76.9666
70.3015
95.7404
97.2711
97.6433
97.248
96.3937
94.6981
92.325
89.0715
84.6169
79.2446
73.785
68.3345
67.7551
69.2053
70.2104
70.8303
71.2995
71.2708
70.8242
69.8412
68.2652
66.2971
63.7873
60.6025
53.2013
53.7629
54.0421
54.092
54.0837
54.0162
53.8652
53.585
53.1314
52.5032
51.7013
50.7698
64.435
59.6009
55.738
52.8498
50.9113
49.9081
50.0906
51.1154
54.1696
62.598
85.4809
168.199
63.299
59.1781
55.894
53.4621
51.8173
50.814
50.7841
51.3012
52.9616
57.1075
67.3628
91.4937
57.4736
55.0359
53.0467
51.5234
50.3808
49.5353
49.1668
49.231
50.0778
51.7744
56.4066
64.9556
49.998
49.1695
48.1499
47.0869
46.0741
45.2223
44.7207
44.6664
45.3207
46.2148
48.5645
51.9482
154.248
146.579
138.665
130.548
123.277
115.619
107.764
99.8477
91.9691
84.2213
76.964
70.3003
95.7469
97.2785
97.6498
97.2526
96.3956
94.6976
92.3234
89.0686
84.6129
79.2411
73.7822
68.3323
67.7604
69.2112
70.2163
70.8357
71.3032
71.2732
70.8255
69.8414
68.2648
66.296
63.7856
60.6004
53.2064
53.7682
54.0475
54.0967
54.0878
54.0194
53.8675
53.5864
53.1321
52.5032
51.7007
50.769
64.4349
59.6018
55.7396
52.852
50.914
49.9112
50.094
51.1193
54.1745
62.6045
85.4902
168.221
63.2975
59.1773
55.8938
53.4625
51.8182
50.8154
50.7859
51.3038
52.965
57.1123
67.3697
91.5055
57.4717
55.0344
53.0457
51.5228
50.3807
49.5358
49.1684
49.2331
50.081
51.7787
56.4127
64.9641
49.9969
49.1685
48.1492
47.0867
46.0748
45.2238
44.7237
44.6701
45.3254
46.2205
48.5715
51.9565
154.263
146.585
138.668
130.554
123.285
115.627
107.772
99.8544
91.9736
84.224
76.9652
70.3005
95.7596
97.2892
97.6589
97.262
96.4058
94.7081
92.3337
89.078
84.6205
79.2471
73.7869
68.3359
67.7703
69.2212
70.2261
70.8456
71.3136
71.284
70.8363
69.8519
68.2749
66.3052
63.7938
60.6071
53.2156
53.7778
54.057
54.1064
54.0977
54.0294
53.8776
53.5964
53.1418
52.5123
51.7092
50.7768
64.4346
59.6013
55.739
52.8512
50.913
49.9097
50.0921
51.1165
54.1703
62.5983
85.4807
168.2
63.3006
59.1801
55.8962
53.4643
51.8193
50.8155
50.7851
51.3017
52.9615
57.1068
67.3615
91.4924
57.478
55.0399
53.0502
51.5262
50.3827
49.5364
49.1668
49.2306
50.0768
51.773
56.4045
64.9534
50.0037
49.1738
48.1528
47.0886
46.0747
45.2218
44.7195
44.6649
45.3189
46.2129
48.5623
51.9468
43.8374
43.5535
43.2254
42.9053
42.7104
42.5843
42.5072
42.4711
42.4877
42.5485
42.6472
42.7503
36.5742
36.1992
35.8809
35.6528
35.549
35.5322
35.6071
35.7955
36.1075
36.4708
36.7666
36.8382
31.145
30.9749
30.8627
30.8075
30.7898
30.7978
30.8793
31.0895
31.5446
32.182
32.8772
33.3931
26.9799
27.0591
27.1566
27.2294
27.2313
27.1214
27.007
27.0204
27.3356
28.1547
30.0427
33.5836
42.7141
41.043
39.4688
38.6661
38.2389
38.295
38.8596
39.7751
40.9709
42.1824
43.4824
44.2201
36.4422
33.2755
31.3499
30.8778
31.1081
31.9316
33.1787
34.6003
35.8613
36.7966
37.4397
37.3551
33.4646
27.3933
25.0802
24.7873
25.403
26.618
28.1592
29.6616
30.8122
31.5609
31.9302
31.7006
36.9327
23.3055
20.2771
19.9842
20.789
22.1333
23.7125
25.1479
26.2019
26.8759
27.2099
27.1582
43.8386
43.5556
43.2283
42.9085
42.7137
42.5876
42.5105
42.4744
42.4909
42.5518
42.6506
42.7537
36.5764
36.202
35.8841
35.6561
35.5523
35.5354
35.6103
35.7988
36.111
36.4747
36.771
36.843
31.1476
30.9778
30.8659
30.8108
30.793
30.801
30.8824
31.0927
31.5484
32.1867
32.8829
33.3998
26.9827
27.062
27.1597
27.2326
27.2345
27.1246
27.0102
27.0237
27.3395
28.1594
30.0488
33.5923
42.7176
41.0462
39.472
38.6695
38.2426
38.299
38.8638
39.7795
40.9754
42.1871
43.4871
44.2248
36.4475
33.28
31.3544
30.8823
31.1129
31.9364
33.1836
34.6051
35.8659
36.8012
37.4443
37.3594
33.4721
27.3991
25.0855
24.7925
25.4082
26.6231
28.1642
29.6663
30.8167
31.5653
31.9343
31.7044
36.9447
23.3123
20.2827
19.9895
20.7942
22.1384
23.7174
25.1524
26.206
26.8798
27.2136
27.1615
43.8432
43.56
43.2323
42.9118
42.7163
42.5896
42.5118
42.4751
42.4913
42.5518
42.6505
42.7539
36.5804
36.2056
35.8873
35.6587
35.5544
35.537
35.6116
35.7998
36.1121
36.476
36.7727
36.8454
31.1511
30.9809
30.8686
30.8131
30.7951
30.8028
30.8841
31.0944
31.5509
32.1899
32.8872
33.4047
26.9857
27.0647
27.1622
27.2349
27.2367
27.1269
27.0127
27.0265
27.3433
28.1644
30.0551
33.6005
42.7186
41.0477
39.4743
38.6728
38.247
38.3041
38.87
39.7862
40.9827
42.195
43.4958
44.2339
36.4511
33.284
31.359
30.8879
31.1192
31.9434
33.1912
34.6131
35.8744
36.8099
37.4531
37.3681
33.4781
27.4047
25.0913
24.7989
25.4151
26.6306
28.1722
29.6745
30.825
31.5736
31.9426
31.7122
36.9548
23.3187
20.2888
19.9958
20.8009
22.1456
23.725
25.16
26.2137
26.8874
27.2208
27.1681
43.8524
43.5691
43.2412
42.9206
42.7249
42.5979
42.5197
42.4823
42.4978
42.5574
42.6549
42.7566
36.5888
36.2136
35.8949
35.6658
35.5609
35.5428
35.6167
35.8038
36.1145
36.4767
36.7714
36.8421
31.1582
30.9874
30.8745
30.8183
30.7992
30.806
30.8863
31.0954
31.5488
32.1852
32.8799
33.3957
26.9914
27.0697
27.1664
27.2382
27.2389
27.1275
27.0116
27.024
27.3375
28.1558
30.0437
33.5857
42.7185
41.0463
39.4714
38.6682
38.2409
38.2971
38.862
39.7778
40.9738
42.1857
43.4862
44.2242
36.4448
33.2777
31.3519
30.8799
31.1105
31.9343
33.1818
34.6039
35.8652
36.8008
37.4444
37.3598
33.4669
27.3953
25.0823
24.7896
25.4057
26.6211
28.1628
29.6657
30.8167
31.5656
31.9353
31.7056
36.9358
23.3076
20.2792
19.9864
20.7917
22.1365
23.7162
25.1521
26.2065
26.8807
27.2151
27.1633
23.581
23.8711
24.1259
24.2672
24.1951
23.8311
23.2833
22.6499
22.0201
21.4588
21.36
24.434
20.6325
21.0706
21.4186
21.5728
21.3613
20.6636
19.523
17.9329
15.7668
12.6109
7.41223
3.00365
17.9614
18.4918
18.8795
19.0141
18.6571
17.657
15.995
13.6358
10.5026
6.58281
2.84995
1.75415
15.4949
16.0687
16.4688
16.5759
16.1208
14.9426
13.0036
10.3418
7.12484
3.89916
1.85359
1.64535
13.2245
13.8057
14.2038
14.2922
13.8091
12.6048
10.6532
8.09411
5.28929
2.92687
1.63333
1.61122
11.1724
11.7354
12.1236
12.2071
11.7586
10.6539
8.878
6.63757
4.35405
2.5987
1.61293
1.54285
9.37159
9.8988
10.2722
10.3614
9.9855
9.06075
7.55329
5.69395
3.87381
2.51224
1.66686
1.39579
7.85829
8.34082
8.69549
8.79263
8.50715
7.79216
6.57259
5.07304
3.62336
2.51209
1.73464
1.19703
6.6811
7.11897
7.45341
7.56292
7.36485
6.83808
5.88243
4.68709
3.51847
2.56412
1.78143
0.946951
5.94501
6.35419
6.68077
6.80727
6.68226
6.28637
5.5308
4.56645
3.56414
2.67317
1.79787
0.664657
6.08965
6.53168
6.89983
7.0629
6.97703
6.59688
5.93066
5.06484
4.04504
2.98982
1.78937
0.379381
11.3071
12.2674
13.1277
13.5257
13.3442
12.5918
11.3184
9.50741
7.17041
4.48402
2.11158
0.507169
59.157
19.8748
16.309
16.0995
16.9782
18.3089
19.8009
21.1351
22.1326
22.8014
23.2172
23.4123
34.8675
15.1128
12.877
12.906
13.7988
15.0458
16.4004
17.6235
18.5769
19.2794
19.7956
20.2099
24.2836
11.4677
10.0833
10.2936
11.15
12.2798
13.4823
14.5883
15.489
16.2102
16.8181
17.3872
17.6316
8.77456
7.87734
8.1713
8.96043
9.95907
11.0109
11.994
12.8324
13.5465
14.1984
14.8459
12.967
6.77247
6.15132
6.46425
7.1691
8.03571
8.94397
9.80462
10.5691
11.2498
11.8968
12.5581
9.49868
5.25678
4.80578
5.10353
5.72132
6.46397
7.239
7.98412
8.66528
9.29084
9.90069
10.5321
6.90466
4.10884
3.75616
4.02673
4.56828
5.2019
5.85806
6.49699
7.09403
7.65412
8.20812
8.78441
4.97392
3.21068
2.93555
3.18074
3.66833
4.21392
4.7698
5.31612
5.83623
6.33115
6.82372
7.33583
3.47594
2.45175
2.28458
2.52978
2.99264
3.47689
3.95584
4.42877
4.88741
5.32795
5.76599
6.21879
2.27573
1.78002
1.76913
2.07537
2.55984
3.0214
3.4542
3.87879
4.29633
4.70049
5.10672
5.52185
1.34665
1.22619
1.43603
1.91691
2.4798
2.97254
3.41916
3.86328
4.31455
4.75266
5.19446
5.63879
1.00643
1.33754
2.28536
3.38084
4.26578
5.03935
5.81418
6.68915
7.64835
8.584
9.48456
10.382
23.5835
23.8738
24.1288
24.2703
24.1983
23.8342
23.2865
22.6532
22.0237
21.4628
21.3647
24.4409
20.6348
21.0732
21.4215
21.5759
21.3645
20.6668
19.5261
17.9361
15.7698
12.6138
7.4146
3.00525
17.9636
18.4943
18.8824
19.0172
18.6603
17.6602
15.9982
13.6387
10.5052
6.58489
2.85135
1.75535
15.497
16.0712
16.4716
16.579
16.124
14.9459
13.0066
10.3445
7.12711
3.90079
1.85466
1.64651
13.2266
13.8081
14.2065
14.2951
13.8123
12.608
10.6562
8.09669
5.29133
2.9283
1.63429
1.61235
11.1746
11.7378
12.1262
12.21
11.7617
10.657
8.88086
6.64001
4.35594
2.60004
1.61387
1.54393
9.37385
9.90115
10.2748
10.3642
9.98847
9.06371
7.55603
5.69627
3.87562
2.51356
1.6678
1.39676
7.86059
8.34314
8.69801
8.79535
8.50998
7.79498
6.57522
5.07527
3.62512
2.51341
1.7356
1.19786
6.68338
7.12126
7.4559
7.56556
7.36758
6.84079
5.88497
4.68927
3.52022
2.56546
1.78243
0.947602
5.94731
6.35657
6.68329
6.80994
6.68499
6.28908
5.53336
4.56865
3.56596
2.67458
1.79888
0.665114
6.09193
6.53449
6.90273
7.06594
6.98015
6.59994
5.93354
5.06735
4.04716
2.99143
1.7904
0.379634
11.3124
12.2728
13.1335
13.5319
13.3505
12.598
11.3242
9.51231
7.17435
4.48655
2.11282
0.507458
59.1803
19.8819
16.3145
16.1046
16.9832
18.3137
19.8054
21.1392
22.1364
22.805
23.2203
23.4152
34.8833
15.1191
12.882
12.9108
13.8034
15.0502
16.4046
17.6273
18.5804
19.2825
19.7984
20.2124
24.2955
11.473
10.0878
10.2979
11.1542
12.2838
13.4862
14.5918
15.4921
16.2129
16.8205
17.3894
17.6409
8.77906
7.88125
8.1751
8.9642
9.96277
11.0145
11.9972
12.8352
13.549
14.2005
14.8479
12.9742
6.77621
6.15468
6.46759
7.17247
8.03906
8.9472
9.80761
10.5718
11.2522
11.8988
12.5598
9.50415
5.25986
4.80864
5.10646
5.72433
6.467
7.24196
7.98689
8.66777
9.29303
9.90258
10.5337
6.90873
4.11133
3.75857
4.02928
4.57097
5.20465
5.86079
6.49957
7.09639
7.6562
8.20993
8.78597
4.97692
3.21268
2.93756
3.18295
3.67074
4.21643
4.77232
5.31855
5.83849
6.33317
6.82549
7.33738
3.47808
2.45332
2.28624
2.53172
2.99483
3.47921
3.95821
4.43109
4.8896
5.32993
5.76777
6.22036
2.27715
1.7812
1.77052
2.07716
2.56193
3.02365
3.45652
3.88109
4.29853
4.70252
5.10856
5.52352
1.3475
1.22707
1.4373
1.91874
2.48201
2.97495
3.42167
3.86583
4.31704
4.75498
5.19661
5.64077
1.00693
1.33848
2.28773
3.38416
4.26969
5.04359
5.81864
6.69383
7.65302
8.58846
9.48878
10.3859
23.5862
23.8763
24.1313
24.2727
24.2008
23.8369
23.2895
22.6567
22.028
21.468
21.3704
24.4462
20.6372
21.0755
21.4238
21.5783
21.3672
20.6697
19.5293
17.9395
15.7735
12.6171
7.41643
3.00555
17.9656
18.4963
18.8845
19.0195
18.6629
17.663
16.0011
13.6416
10.5077
6.58649
2.85179
1.75542
15.4988
16.073
16.4735
16.5811
16.1264
14.9484
13.0092
10.3468
7.12869
3.90152
1.85484
1.64657
13.2282
13.8097
14.2082
14.297
13.8144
12.6102
10.6583
8.09835
5.29235
2.92868
1.63441
1.61241
11.1761
11.7392
12.1277
12.2117
11.7635
10.6588
8.88252
6.64126
4.35664
2.60027
1.61397
1.54399
9.37522
9.90244
10.2761
10.3656
9.98996
9.06518
7.55734
5.69722
3.87614
2.51373
1.66791
1.39682
7.86194
8.34434
8.69919
8.79654
8.51122
7.79617
6.57626
5.07602
3.62554
2.51358
1.73572
1.19791
6.68475
7.12243
7.45701
7.56659
7.36865
6.84178
5.88582
4.6899
3.52058
2.56567
1.78255
0.947648
5.94878
6.3578
6.68441
6.81092
6.68596
6.28996
5.53409
4.56921
3.5663
2.6748
1.79902
0.665142
6.09368
6.53594
6.90399
7.06701
6.98116
6.60084
5.93429
5.06793
4.04753
2.99169
1.79054
0.379651
11.3157
12.2757
13.1358
13.5339
13.3524
12.5997
11.3256
9.51343
7.17507
4.48695
2.11299
0.507496
59.1995
19.8885
16.3201
16.1103
16.9893
18.3202
19.8123
21.1461
22.1431
22.8115
23.2264
23.4205
34.8966
15.1247
12.8868
12.9157
13.8086
15.0558
16.4105
17.6332
18.5862
19.288
19.8034
20.2166
24.3055
11.4775
10.0917
10.3019
11.1585
12.2884
13.4911
14.5967
15.4969
16.2175
16.8246
17.3927
17.6483
8.78256
7.88435
8.17829
8.96763
9.96644
11.0183
12.0012
12.8391
13.5526
14.2037
14.8505
12.9797
6.77894
6.15707
6.47004
7.17511
8.04189
8.95016
9.81063
10.5748
11.255
11.9013
12.5618
9.50822
5.26199
4.81045
5.10827
5.72627
6.46909
7.24416
7.98914
8.67001
9.29514
9.90444
10.5352
6.91171
4.11304
3.75993
4.03058
4.57235
5.20614
5.86235
6.50117
7.09799
7.65773
8.21127
8.78699
4.97909
3.21406
2.93858
3.18385
3.67167
4.21744
4.77338
5.31964
5.83958
6.33421
6.8264
7.33803
3.4796
2.45439
2.28698
2.53231
2.99542
3.47987
3.9589
4.43179
4.8903
5.33061
5.76834
6.22073
2.27815
1.78197
1.77104
2.07748
2.56226
3.02406
3.45697
3.88154
4.29897
4.70294
5.10891
5.52369
1.3481
1.22755
1.4376
1.91889
2.48222
2.97527
3.42205
3.86617
4.31734
4.75527
5.19684
5.64084
1.00747
1.33894
2.28789
3.38447
4.27021
5.04437
5.81951
6.69448
7.65363
8.5891
9.48931
10.3862
23.5906
23.8798
24.134
24.2744
24.201
23.8355
23.2864
22.6516
22.0204
21.4583
21.3593
24.435
20.6404
21.0777
21.4252
21.5787
21.3659
20.6669
19.5251
17.9339
15.7668
12.6107
7.41277
3.0049
17.9679
18.4976
18.885
19.0188
18.6607
17.6596
15.9967
13.6367
10.5032
6.58351
2.85095
1.75526
15.5005
16.0736
16.4733
16.5798
16.1238
14.9448
13.0051
10.3429
7.12585
3.90022
1.85447
1.64642
13.2294
13.8099
14.2076
14.2955
13.8117
12.6068
10.6548
8.09542
5.29052
2.92793
1.63411
1.61225
11.1769
11.7391
12.1269
12.21
11.761
10.6558
8.87959
6.63898
4.35531
2.59967
1.61366
1.54377
9.37569
9.90226
10.2753
10.364
9.98772
9.06264
7.5549
5.69538
3.87506
2.51315
1.66755
1.39659
7.86218
8.34411
8.69838
8.79512
8.50933
7.79404
6.5742
5.07447
3.62458
2.51299
1.73531
1.19768
6.68482
7.12217
7.45626
7.56537
7.36706
6.84001
5.88407
4.68854
3.51968
2.56505
1.78209
0.947441
5.94873
6.3575
6.68372
6.80984
6.6846
6.28844
5.53255
4.56798
3.56541
2.67413
1.79852
0.664981
6.09357
6.53561
6.90333
7.06597
6.9798
6.59934
5.9328
5.06668
4.04651
2.9909
1.79001
0.379545
11.3159
12.2754
13.135
13.532
13.3499
12.5969
11.3228
9.51102
7.17305
4.48567
2.11232
0.507312
59.1642
19.877
16.311
16.1016
16.9807
18.3118
19.8043
21.1391
22.1371
22.8062
23.2222
23.4167
34.8727
15.1148
12.8787
12.9079
13.8009
15.0483
16.4034
17.627
18.5809
19.2839
19.8004
20.213
24.2875
11.4693
10.0848
10.2952
11.1518
12.2818
13.4848
14.5912
15.4924
16.214
16.8221
17.3898
17.6347
8.77588
7.87849
8.17251
8.9618
9.96068
11.0129
11.9963
12.8351
13.5495
14.2016
14.8483
12.9694
6.77352
6.1522
6.46516
7.17012
8.0369
8.9454
9.80637
10.5712
11.2521
11.8993
12.5602
9.50049
5.25761
4.80645
5.10419
5.72203
6.46479
7.23999
7.98536
8.66677
9.29252
9.9025
10.5336
6.90602
4.1095
3.75667
4.02719
4.56876
5.20243
5.8587
6.49781
7.09506
7.65532
8.20943
8.78551
4.97497
3.21123
2.93594
3.18105
3.66862
4.21422
4.77016
5.31661
5.83689
6.33197
6.82462
7.33656
3.47674
2.45222
2.28488
2.52998
2.9928
3.47702
3.956
4.429
4.8878
5.32847
5.76659
6.21921
2.27632
1.78041
1.76939
2.07549
2.5599
3.02141
3.4542
3.87884
4.29652
4.70084
5.10713
5.52209
1.34707
1.22649
1.43624
1.91698
2.47979
2.97246
3.41905
3.86321
4.31462
4.75292
5.19483
5.63883
1.00676
1.3379
2.28557
3.38095
4.26575
5.03924
5.81401
6.68904
7.64852
8.58459
9.48535
10.3819
)
;

boundaryField
{
    rotor
    {
        Cmu             0.09;
        kappa           0.41;
        E               9.8;
        type            epsilonWallFunction;
        value           nonuniform List<scalar> 
192
(
3.62763
3.03377
3.58403
3.57527
3.23447
2.7433
2.99257
6.74018
27.5689
43.171
50.4659
55.5766
58.6102
60.1785
60.3252
59.9822
58.5464
55.4236
50.9728
44.7809
37.3174
28.2309
18.6235
23.353
3.63615
3.03923
3.58875
3.57957
3.23823
2.74578
2.99405
6.73209
27.5521
43.1589
50.4557
55.5663
58.6015
60.1707
60.3193
59.9773
58.5439
55.4218
50.9729
44.7812
37.3187
28.2323
18.6252
23.3553
3.63539
3.03761
3.58666
3.57703
3.23475
2.7433
2.99393
6.761
27.6036
43.192
50.483
55.5948
58.6273
60.1953
60.3404
59.9971
58.5575
55.434
50.98
44.7869
37.3214
28.233
18.6241
23.3533
3.63633
3.03926
3.58885
3.57964
3.23815
2.74588
2.99465
6.73931
27.5665
43.1701
50.4658
55.5769
58.6116
60.1807
60.3286
59.9863
58.5514
55.4287
50.9781
44.7855
37.3214
28.2342
18.6262
23.357
3.62763
7.42852
9.2803
13.5106
15.4775
16.4039
16.5329
16.576
17.3482
19.3978
24.0861
111.993
23.357
75.5657
120.438
152.538
177.977
200.932
221.426
246.202
275.271
306.168
344.727
408.747
3.63615
7.43497
9.28575
13.5133
15.4772
16.4007
16.5306
16.5741
17.3474
19.3977
24.087
112.006
23.353
75.5556
120.425
152.523
177.959
200.911
221.402
246.174
275.24
306.134
344.691
408.711
3.63539
7.43528
9.2873
13.5211
15.4891
16.4163
16.542
16.5821
17.3496
19.3941
24.0815
112.018
23.3553
75.5616
120.433
152.532
177.97
200.925
221.418
246.194
275.263
306.162
344.724
408.751
3.63633
7.43577
9.28695
13.5149
15.479
16.4022
16.5317
16.5748
17.3478
19.3984
24.089
112.021
23.3533
75.5581
120.434
152.539
177.982
200.942
221.439
246.219
275.293
306.196
344.762
408.798
)
;
    }
    stator
    {
        Cmu             0.09;
        kappa           0.41;
        E               9.8;
        type            epsilonWallFunction;
        value           nonuniform List<scalar> 
192
(
11.3071
12.2674
13.1277
13.5257
13.3442
12.5918
11.3184
9.50741
7.17041
4.48402
2.11158
0.507169
1.00643
1.33754
2.28536
3.38084
4.26578
5.03935
5.81418
6.68915
7.64835
8.584
9.48456
10.382
11.3124
12.2728
13.1335
13.5319
13.3505
12.598
11.3242
9.51231
7.17435
4.48655
2.11282
0.507458
1.00693
1.33848
2.28773
3.38416
4.26969
5.04359
5.81864
6.69383
7.65302
8.58846
9.48878
10.3859
11.3157
12.2757
13.1358
13.5339
13.3524
12.5997
11.3256
9.51343
7.17507
4.48695
2.11299
0.507496
1.00747
1.33894
2.28789
3.38447
4.27021
5.04437
5.81951
6.69448
7.65363
8.5891
9.48931
10.3862
11.3159
12.2754
13.135
13.532
13.3499
12.5969
11.3228
9.51102
7.17305
4.48567
2.11232
0.507312
1.00676
1.3379
2.28557
3.38095
4.26575
5.03924
5.81401
6.68904
7.64852
8.58459
9.48535
10.3819
59.157
34.8675
24.2836
17.6316
12.967
9.49868
6.90466
4.97392
3.47594
2.27573
1.34665
1.00643
24.434
3.00365
1.75415
1.64535
1.61122
1.54285
1.39579
1.19703
0.946951
0.664657
0.379381
0.507169
59.1803
34.8833
24.2955
17.6409
12.9742
9.50415
6.90873
4.97692
3.47808
2.27715
1.3475
1.00693
24.4409
3.00525
1.75535
1.64651
1.61235
1.54393
1.39676
1.19786
0.947602
0.665114
0.379634
0.507458
59.1995
34.8966
24.3055
17.6483
12.9797
9.50822
6.91171
4.97909
3.4796
2.27815
1.3481
1.00747
24.4462
3.00555
1.75542
1.64657
1.61241
1.54399
1.39682
1.19791
0.947648
0.665142
0.379651
0.507496
59.1642
34.8727
24.2875
17.6347
12.9694
9.50049
6.90602
4.97497
3.47674
2.27632
1.34707
1.00676
24.435
3.0049
1.75526
1.64642
1.61225
1.54377
1.39659
1.19768
0.947441
0.664981
0.379545
0.507312
)
;
    }
    front
    {
        type            empty;
    }
    back
    {
        type            empty;
    }
}


// ************************************************************************* //
