/*--------------------------------*- C++ -*----------------------------------*\
| =========                 |                                                 |
| \\      /  F ield         | OpenFOAM: The Open Source CFD Toolbox           |
|  \\    /   O peration     | Version:  4.0                                   |
|   \\  /    A nd           | Web:      www.OpenFOAM.org                      |
|    \\/     M anipulation  |                                                 |
\*---------------------------------------------------------------------------*/
FoamFile
{
    version     2.0;
    format      ascii;
    class       volScalarField;
    location    "400";
    object      k;
}
// * * * * * * * * * * * * * * * * * * * * * * * * * * * * * * * * * * * * * //

dimensions      [0 2 -2 0 0 0 0];

internalField   nonuniform List<scalar> 
3072
(
0.0340971
0.0453003
0.0506183
0.0505389
0.0472869
0.0423564
0.0448365
0.0766455
0.196679
0.26564
0.294884
0.31449
0.0591733
0.108483
0.110465
0.104735
0.0864777
0.105224
0.181308
0.20892
0.287605
0.359513
0.428962
0.496342
0.0733563
0.133233
0.174898
0.200048
0.203291
0.200348
0.256947
0.334333
0.43043
0.515698
0.59311
0.658586
0.100103
0.19392
0.222936
0.22415
0.227927
0.271015
0.36407
0.459303
0.549807
0.627471
0.69557
0.752172
0.115852
0.227103
0.249176
0.250296
0.285135
0.367875
0.465418
0.55762
0.638924
0.707631
0.767082
0.816928
0.126766
0.250423
0.280487
0.30143
0.364398
0.456171
0.550232
0.63498
0.707182
0.767955
0.820324
0.864767
0.133673
0.265837
0.309885
0.362486
0.447112
0.542283
0.63146
0.708716
0.773155
0.826699
0.872281
0.911091
0.140026
0.285885
0.35804
0.450634
0.555813
0.653594
0.736624
0.804338
0.858562
0.90217
0.938361
0.968906
0.150533
0.323928
0.45645
0.596511
0.722188
0.820463
0.893025
0.945586
0.983478
1.01093
1.0321
1.04917
0.168694
0.399356
0.640237
0.834062
0.972894
1.06224
1.11496
1.14352
1.15678
1.15972
1.15878
1.15584
0.202254
0.550042
0.943009
1.18152
1.30696
1.36613
1.38513
1.38027
1.36083
1.3343
1.30593
1.27832
0.58356
0.951674
1.36646
1.55631
1.62492
1.63619
1.6215
1.58498
1.53873
1.48756
1.43612
1.38689
0.325888
0.331712
0.3323
0.331018
0.325755
0.314077
0.297063
0.272498
0.241344
0.200376
0.151854
0.117971
0.556748
0.604287
0.635743
0.647757
0.643997
0.633114
0.616288
0.589975
0.543694
0.447337
0.328229
0.277919
0.709978
0.745178
0.764272
0.77016
0.768202
0.762351
0.753979
0.740331
0.71218
0.646445
0.489838
0.405381
0.79618
0.828278
0.849125
0.860909
0.866904
0.870635
0.874686
0.87776
0.87256
0.836986
0.698824
0.504179
0.856591
0.886764
0.908271
0.923083
0.934333
0.945721
0.960552
0.979382
0.992317
0.981415
0.8759
0.59071
0.901197
0.930198
0.952661
0.970474
0.986748
1.00553
1.03084
1.0643
1.10074
1.11692
1.05723
0.674166
0.943616
0.970511
0.992739
1.01215
1.03184
1.05619
1.09011
1.13675
1.19262
1.23526
1.21678
0.754343
0.994799
1.01689
1.0362
1.05448
1.07472
1.1016
1.14118
1.19886
1.27366
1.34243
1.3552
0.846405
1.06359
1.0765
1.08893
1.10243
1.1196
1.14517
1.18634
1.25168
1.34455
1.44127
1.47392
0.950588
1.15287
1.15147
1.15271
1.15779
1.16848
1.18905
1.22727
1.29539
1.4038
1.53346
1.60275
1.06128
1.25376
1.23408
1.2204
1.2151
1.21998
1.23397
1.26575
1.32963
1.44507
1.61166
1.75017
1.19198
1.34287
1.30698
1.28036
1.26477
1.26524
1.27515
1.30082
1.35604
1.4629
1.65091
1.89338
1.38307
0.0341416
0.0453529
0.0506624
0.0505799
0.0473238
0.0423823
0.0448501
0.0765879
0.196601
0.265593
0.294846
0.314452
0.0592073
0.108538
0.110519
0.104789
0.0865296
0.105233
0.181288
0.208871
0.287516
0.359438
0.428871
0.496253
0.0733856
0.133274
0.174936
0.200084
0.203314
0.200341
0.25685
0.334236
0.430317
0.515587
0.592995
0.658474
0.100118
0.193948
0.222967
0.224174
0.227901
0.27092
0.363957
0.459192
0.549692
0.627352
0.695448
0.752052
0.115854
0.2271
0.249158
0.25025
0.285043
0.367775
0.465313
0.557514
0.638812
0.707515
0.76696
0.816806
0.126752
0.250401
0.280445
0.301362
0.364312
0.456083
0.550142
0.634884
0.707081
0.767846
0.820211
0.86465
0.133662
0.265809
0.30984
0.362422
0.447043
0.542215
0.631389
0.708641
0.773074
0.826611
0.872187
0.910993
0.140017
0.285869
0.358008
0.450597
0.555777
0.65356
0.736588
0.804298
0.858517
0.902118
0.938302
0.968841
0.150529
0.323926
0.45645
0.596519
0.722202
0.820481
0.893042
0.9456
0.983486
1.01093
1.03209
1.04915
0.168693
0.39937
0.64027
0.834118
0.972965
1.06232
1.11504
1.1436
1.15685
1.15978
1.15883
1.15588
0.202259
0.550065
0.943073
1.18161
1.30707
1.36625
1.38526
1.3804
1.36095
1.33441
1.30602
1.2784
0.5836
0.95173
1.36654
1.5564
1.62504
1.63631
1.62164
1.58512
1.53887
1.48769
1.43625
1.387
0.325858
0.331685
0.33228
0.331001
0.325747
0.314071
0.297065
0.2725
0.241351
0.200383
0.151863
0.117979
0.556665
0.604212
0.635686
0.647716
0.643966
0.633094
0.616279
0.589975
0.5437
0.447347
0.328243
0.277934
0.709872
0.745084
0.764192
0.7701
0.768157
0.762319
0.753961
0.740326
0.712185
0.646458
0.489854
0.405399
0.796066
0.828173
0.849033
0.860832
0.866842
0.870589
0.874655
0.877748
0.872561
0.837
0.698846
0.504201
0.856472
0.886652
0.908169
0.922995
0.93426
0.945666
0.960516
0.979365
0.992317
0.981433
0.87593
0.590737
0.901082
0.930088
0.952559
0.970385
0.986673
1.00547
1.0308
1.06428
1.10075
1.11694
1.05727
0.674198
0.943517
0.970415
0.992649
1.01207
1.03177
1.05613
1.09007
1.13674
1.19263
1.23529
1.21683
0.754382
0.994731
1.01682
1.03614
1.05442
1.07467
1.10156
1.14116
1.19886
1.27368
1.34248
1.35527
0.846451
1.06357
1.07647
1.0889
1.1024
1.11958
1.14515
1.18634
1.25169
1.34458
1.44133
1.47399
0.950644
1.1529
1.15148
1.15272
1.1578
1.16849
1.18907
1.22728
1.29543
1.40386
1.53354
1.60285
1.06134
1.25383
1.23414
1.22045
1.21515
1.22002
1.23401
1.2658
1.32968
1.44514
1.61176
1.75028
1.19205
1.34297
1.30707
1.28044
1.26484
1.26531
1.27522
1.3009
1.35611
1.46299
1.65102
1.8935
1.38316
0.0341361
0.045336
0.0506416
0.0505549
0.047289
0.0423562
0.0448521
0.076802
0.196845
0.265728
0.294951
0.314559
0.059207
0.108529
0.110487
0.104712
0.0864331
0.105282
0.181352
0.208998
0.28778
0.359654
0.429144
0.496528
0.0733913
0.1333
0.174955
0.200001
0.2032
0.200318
0.257136
0.334533
0.430667
0.515929
0.59335
0.658823
0.100154
0.193981
0.22292
0.224071
0.227954
0.271223
0.364344
0.459565
0.55007
0.62773
0.695829
0.752428
0.11591
0.227183
0.249242
0.250385
0.285359
0.368159
0.465703
0.557892
0.639188
0.707893
0.767347
0.817195
0.126829
0.250532
0.280612
0.301623
0.364663
0.456445
0.5505
0.635239
0.70744
0.768218
0.820596
0.865045
0.133722
0.265938
0.310031
0.362691
0.447347
0.542524
0.631705
0.708966
0.773414
0.826969
0.872563
0.911383
0.14006
0.285941
0.358148
0.450779
0.555984
0.653787
0.736841
0.804577
0.858822
0.902449
0.938656
0.969213
0.150541
0.323916
0.45648
0.596566
0.722274
0.820591
0.893198
0.945803
0.983732
1.01121
1.0324
1.04948
0.168672
0.399291
0.640206
0.834047
0.972911
1.06231
1.11508
1.14371
1.15702
1.15998
1.15908
1.15615
0.202228
0.549995
0.942982
1.1815
1.30695
1.36617
1.38522
1.38043
1.36104
1.33454
1.30619
1.2786
0.583643
0.951769
1.36654
1.55636
1.62496
1.63624
1.62159
1.58511
1.5389
1.48776
1.43635
1.38713
0.325952
0.331775
0.332356
0.331073
0.325796
0.314117
0.297092
0.272523
0.241362
0.200386
0.151858
0.117972
0.556935
0.604469
0.635907
0.647903
0.64413
0.633233
0.616391
0.590061
0.54376
0.447381
0.328247
0.277925
0.710209
0.7454
0.764481
0.770351
0.768378
0.762513
0.754125
0.740459
0.712291
0.646533
0.489886
0.4054
0.796432
0.828525
0.849364
0.861137
0.86712
0.870838
0.874875
0.877928
0.87271
0.83711
0.698913
0.504216
0.856859
0.887031
0.908534
0.923341
0.934583
0.945961
0.96078
0.979593
0.992511
0.98158
0.876019
0.590762
0.90148
0.930484
0.952948
0.970759
0.987029
1.0058
1.0311
1.06455
1.10097
1.11712
1.05739
0.674235
0.943916
0.970816
0.993047
1.01245
1.03214
1.05649
1.0904
1.13704
1.19289
1.2355
1.21697
0.754427
0.995116
1.01721
1.03653
1.05481
1.07505
1.10192
1.1415
1.19918
1.27396
1.34271
1.35542
0.846509
1.06392
1.07683
1.08927
1.10276
1.11994
1.1455
1.18668
1.25202
1.34488
1.44158
1.47416
0.950711
1.15319
1.15179
1.15304
1.15812
1.16882
1.18939
1.22761
1.29575
1.40416
1.5338
1.60303
1.06142
1.25405
1.23439
1.22071
1.21542
1.2203
1.23429
1.26609
1.32998
1.44544
1.61203
1.75046
1.19214
1.34313
1.30724
1.28063
1.26505
1.26553
1.27544
1.30113
1.35637
1.46327
1.65129
1.89369
1.38326
0.0341426
0.045353
0.0506632
0.0505804
0.0473228
0.0423831
0.0448567
0.076642
0.19667
0.265638
0.294885
0.314492
0.0592114
0.108544
0.110524
0.104789
0.0865294
0.105264
0.181318
0.208907
0.287587
0.3595
0.428949
0.496333
0.0733917
0.133289
0.174956
0.2001
0.203327
0.200364
0.256906
0.334304
0.430399
0.515672
0.593086
0.658565
0.100126
0.193966
0.222987
0.224193
0.227928
0.270972
0.364025
0.459269
0.549775
0.62744
0.695539
0.752144
0.115862
0.227123
0.249187
0.250282
0.285086
0.367829
0.465379
0.557587
0.638891
0.707599
0.767048
0.816898
0.12676
0.250423
0.280472
0.301393
0.36435
0.456132
0.5502
0.63495
0.707154
0.767925
0.820295
0.864739
0.133668
0.265823
0.309858
0.362442
0.447071
0.542253
0.631436
0.708697
0.773137
0.826682
0.872265
0.911077
0.14002
0.285877
0.35802
0.45061
0.555799
0.653589
0.736625
0.804344
0.858571
0.902181
0.938373
0.968919
0.150531
0.32393
0.456461
0.596538
0.722226
0.820509
0.893076
0.94564
0.983533
1.01098
1.03215
1.04922
0.168697
0.399386
0.6403
0.834153
0.973
1.06235
1.11507
1.14363
1.15689
1.15983
1.15889
1.15594
0.20227
0.550112
0.943128
1.18167
1.30712
1.3663
1.3853
1.38044
1.36099
1.33445
1.30607
1.27846
0.583657
0.951834
1.36664
1.55649
1.62511
1.63639
1.6217
1.58518
1.53892
1.48774
1.4363
1.38706
0.325895
0.331722
0.332314
0.331034
0.325774
0.314097
0.297085
0.272518
0.241362
0.200392
0.151869
0.117985
0.556746
0.604293
0.635759
0.647782
0.644027
0.633149
0.616328
0.590017
0.543737
0.447372
0.328257
0.277944
0.709963
0.74517
0.764273
0.770173
0.768225
0.762381
0.754017
0.740375
0.712227
0.646492
0.489874
0.40541
0.796158
0.828263
0.849119
0.860914
0.866918
0.870659
0.874719
0.877802
0.872608
0.837038
0.698874
0.504215
0.856564
0.886744
0.908259
0.923082
0.934343
0.945742
0.960586
0.979427
0.992372
0.981477
0.875962
0.590751
0.901174
0.93018
0.952652
0.970475
0.986761
1.00555
1.03087
1.06435
1.10081
1.11699
1.05731
0.674213
0.943606
0.970506
0.992742
1.01216
1.03186
1.05622
1.09016
1.13682
1.1927
1.23535
1.21687
0.754399
0.994815
1.01691
1.03623
1.05451
1.07476
1.10165
1.14125
1.19894
1.27375
1.34254
1.35531
0.846471
1.06365
1.07655
1.08899
1.10249
1.11967
1.14524
1.18643
1.25178
1.34466
1.4414
1.47404
0.950662
1.15297
1.15156
1.1528
1.15789
1.16858
1.18916
1.22738
1.29552
1.40394
1.5336
1.60289
1.06136
1.25389
1.23421
1.22053
1.21523
1.22011
1.2341
1.26589
1.32976
1.44521
1.61181
1.75032
1.19206
1.34304
1.30714
1.28052
1.26492
1.26539
1.2753
1.30097
1.35618
1.46305
1.65106
1.89351
1.38315
1.70226
1.69988
1.71536
1.73101
1.73701
1.72841
1.70501
1.66514
1.61601
1.55958
1.50107
1.44304
1.71493
1.67075
1.65165
1.6459
1.64439
1.63833
1.62509
1.60349
1.57085
1.52601
1.47728
1.42598
1.61864
1.58165
1.54965
1.52529
1.50587
1.48935
1.47376
1.45712
1.43754
1.41302
1.38343
1.3494
1.48427
1.45664
1.423
1.38694
1.3565
1.33043
1.30866
1.29114
1.27769
1.26628
1.25693
1.25082
1.3901
1.34747
1.31608
1.29748
1.29706
1.30583
1.32821
1.37439
1.4601
1.6242
1.90606
1.827
1.37891
1.34381
1.32
1.30892
1.31125
1.32134
1.34274
1.3811
1.44348
1.54729
1.7706
1.77411
1.32167
1.30741
1.30065
1.30148
1.3081
1.32106
1.34015
1.36796
1.41181
1.46936
1.60783
1.64454
1.25296
1.26326
1.26842
1.27464
1.28208
1.29262
1.30847
1.32965
1.36267
1.39569
1.47307
1.50245
1.70229
1.69995
1.71544
1.73111
1.73713
1.72853
1.70515
1.66528
1.61615
1.55971
1.5012
1.44316
1.71497
1.67083
1.65175
1.64602
1.64452
1.63845
1.62522
1.60362
1.57098
1.52614
1.4774
1.4261
1.61867
1.58176
1.54977
1.52542
1.506
1.48948
1.47389
1.45725
1.43767
1.41314
1.38355
1.34952
1.48427
1.45671
1.42312
1.38707
1.35664
1.33056
1.30879
1.29127
1.27782
1.2664
1.25704
1.25093
1.39021
1.34757
1.31617
1.29757
1.29714
1.30592
1.3283
1.37449
1.46021
1.62432
1.90619
1.82713
1.37902
1.34391
1.3201
1.30902
1.31135
1.32145
1.34285
1.38122
1.44361
1.54743
1.77075
1.77425
1.32178
1.30751
1.30076
1.30159
1.30821
1.32118
1.34028
1.3681
1.41196
1.46952
1.60799
1.6447
1.25308
1.26338
1.26855
1.27477
1.28222
1.29277
1.30863
1.32982
1.36285
1.39586
1.47325
1.50262
1.70242
1.70006
1.71554
1.73116
1.73713
1.72852
1.70513
1.66527
1.61616
1.55975
1.50126
1.44324
1.71511
1.67096
1.65188
1.64612
1.64459
1.63851
1.62527
1.60365
1.571
1.52617
1.47744
1.42615
1.61882
1.58191
1.54991
1.52555
1.50611
1.48958
1.47397
1.45731
1.43772
1.41318
1.38357
1.34955
1.48443
1.45687
1.42327
1.3872
1.35675
1.33067
1.30888
1.29134
1.27786
1.26644
1.25708
1.25096
1.39031
1.34768
1.3163
1.29772
1.29731
1.30609
1.32849
1.37469
1.46045
1.62457
1.90639
1.82728
1.37908
1.34399
1.32019
1.30912
1.31146
1.32157
1.343
1.38138
1.4438
1.54764
1.77096
1.77443
1.32182
1.30756
1.30083
1.30166
1.3083
1.32128
1.3404
1.36825
1.41212
1.46971
1.60821
1.64491
1.25311
1.26342
1.2686
1.27485
1.28231
1.29288
1.30876
1.32997
1.36302
1.39606
1.47347
1.50284
1.70249
1.70011
1.7156
1.73126
1.73726
1.72866
1.70526
1.66538
1.61624
1.55979
1.50128
1.44324
1.71526
1.67109
1.65199
1.64625
1.64473
1.63866
1.62542
1.6038
1.57112
1.52627
1.47752
1.42621
1.61902
1.58208
1.55007
1.5257
1.50627
1.48974
1.47413
1.45747
1.43787
1.41332
1.38369
1.34966
1.48464
1.45707
1.42344
1.38737
1.35692
1.33083
1.30904
1.2915
1.27802
1.26658
1.2572
1.25107
1.39029
1.34765
1.31626
1.29766
1.29723
1.30599
1.32837
1.37453
1.46024
1.62433
1.90617
1.82709
1.37912
1.34402
1.3202
1.3091
1.31143
1.32151
1.34289
1.38123
1.4436
1.5474
1.77069
1.77419
1.32191
1.30763
1.30085
1.30166
1.30826
1.3212
1.34028
1.36807
1.41191
1.46945
1.60791
1.64462
1.25318
1.26346
1.26859
1.27479
1.2822
1.29273
1.30857
1.32974
1.36276
1.39577
1.47315
1.50255
1.32317
1.28588
1.24842
1.21351
1.18551
1.1634
1.14737
1.13764
1.13442
1.13675
1.14866
1.16984
1.19343
1.1577
1.12384
1.09349
1.0686
1.04873
1.03461
1.02675
1.02516
1.02818
1.03996
1.05995
1.0911
1.06215
1.03432
1.00811
0.984072
0.962244
0.94372
0.929188
0.918332
0.910401
0.908488
0.917415
1.00744
0.986726
0.965055
0.941689
0.916159
0.88861
0.860051
0.831096
0.801184
0.769294
0.739153
0.730567
1.1927
1.2043
1.20244
1.20795
1.21959
1.23814
1.26297
1.2912
1.32181
1.34921
1.37426
1.36449
1.0847
1.09687
1.08954
1.09754
1.11737
1.14621
1.18027
1.21387
1.24041
1.25706
1.2625
1.23691
0.951072
0.977883
0.9724
0.984048
1.01091
1.04692
1.08671
1.12077
1.14372
1.15587
1.15377
1.12698
0.774909
0.85119
0.857838
0.874966
0.90695
0.946943
0.989069
1.02253
1.04412
1.05526
1.053
1.03266
1.32324
1.28599
1.24856
1.21365
1.18564
1.16353
1.14749
1.13776
1.13453
1.13686
1.14878
1.16996
1.19353
1.15783
1.12398
1.09362
1.06872
1.04885
1.03472
1.02685
1.02527
1.02829
1.04009
1.06009
1.09122
1.06228
1.03446
1.00824
0.984192
0.962356
0.943825
0.929289
0.918433
0.910508
0.90861
0.91756
1.00756
0.98685
0.965185
0.941816
0.916278
0.888719
0.860153
0.831193
0.801279
0.769393
0.739262
0.73069
1.19284
1.20444
1.20259
1.20812
1.21977
1.23832
1.26315
1.29139
1.32199
1.34939
1.37443
1.36465
1.08486
1.09704
1.08973
1.09774
1.11757
1.14642
1.18047
1.21407
1.2406
1.25724
1.26267
1.23706
0.951252
0.97808
0.972615
0.98427
1.01114
1.04714
1.08692
1.12097
1.1439
1.15604
1.15393
1.12712
0.775083
0.851397
0.858063
0.875198
0.907181
0.947169
0.989283
1.02273
1.0443
1.05543
1.05315
1.03279
1.32339
1.28613
1.24868
1.21375
1.18573
1.16361
1.14755
1.13781
1.13457
1.1369
1.14882
1.17001
1.19367
1.15795
1.12409
1.09372
1.0688
1.04891
1.03478
1.0269
1.02531
1.02834
1.04014
1.06017
1.09135
1.06239
1.03455
1.00833
0.984268
0.962423
0.943884
0.929344
0.918489
0.910574
0.90869
0.91766
1.00767
0.986954
0.965278
0.941899
0.916354
0.888789
0.860219
0.831259
0.801349
0.769474
0.739358
0.730798
1.19291
1.20452
1.20269
1.20824
1.2199
1.23848
1.26332
1.29157
1.32219
1.3496
1.37466
1.36486
1.08496
1.09716
1.08986
1.09789
1.11774
1.1466
1.18067
1.21427
1.24081
1.25745
1.26289
1.23727
0.951381
0.978223
0.972772
0.98444
1.01132
1.04733
1.08712
1.12118
1.14411
1.15625
1.15413
1.1273
0.775221
0.851554
0.858226
0.875369
0.907362
0.947358
0.989478
1.02293
1.0445
1.05562
1.05334
1.03295
1.32359
1.28632
1.24885
1.21391
1.18589
1.16375
1.14769
1.13793
1.13467
1.13698
1.14886
1.17
1.19385
1.15812
1.12424
1.09386
1.06893
1.04902
1.03487
1.02697
1.02535
1.02835
1.04009
1.06005
1.09151
1.06254
1.03468
1.00843
0.984358
0.96249
0.943924
0.929351
0.918459
0.910501
0.90856
0.917477
1.00781
0.987071
0.965372
0.941973
0.916405
0.888814
0.860212
0.831215
0.801267
0.769348
0.739184
0.730596
1.19284
1.20442
1.20253
1.20804
1.21967
1.23822
1.26305
1.29128
1.3219
1.3493
1.37436
1.3646
1.08479
1.09695
1.08961
1.09761
1.11744
1.14629
1.18035
1.21396
1.24051
1.25716
1.26262
1.23703
0.951134
0.977946
0.972463
0.984112
1.01098
1.04699
1.08679
1.12086
1.14382
1.15598
1.1539
1.12711
0.774958
0.851245
0.857895
0.875026
0.907014
0.947013
0.989148
1.02263
1.04422
1.05537
1.05314
1.03279
0.934076
0.921398
0.905353
0.8839
0.855571
0.819995
0.777402
0.727437
0.667101
0.587122
0.4584
0.272518
0.865028
0.859513
0.848494
0.828638
0.797467
0.753627
0.696165
0.623636
0.531528
0.408742
0.223264
0.0689404
0.796786
0.797312
0.790853
0.772802
0.739877
0.689716
0.62051
0.531042
0.419511
0.286088
0.139778
0.0492417
0.728219
0.733322
0.730973
0.71524
0.682351
0.629293
0.554119
0.457375
0.342748
0.223176
0.121287
0.0482068
0.659183
0.667685
0.668729
0.655879
0.624959
0.572783
0.497758
0.402705
0.296024
0.195209
0.118073
0.0485375
0.590175
0.60107
0.60478
0.595116
0.567762
0.519701
0.449636
0.362131
0.267741
0.182502
0.117453
0.0481136
0.521761
0.534173
0.539947
0.533396
0.510602
0.468962
0.406827
0.32968
0.24807
0.174804
0.116105
0.0458951
0.454314
0.467478
0.474698
0.470821
0.453046
0.419064
0.3663
0.300271
0.230462
0.166597
0.111579
0.0422222
0.387486
0.400613
0.408689
0.407028
0.393813
0.367557
0.325109
0.269832
0.21051
0.154471
0.101988
0.0367885
0.318802
0.331128
0.339464
0.339434
0.329985
0.310563
0.27892
0.234158
0.184194
0.135269
0.0853894
0.0295817
0.239028
0.249495
0.257204
0.258242
0.25208
0.238082
0.217009
0.185664
0.144491
0.103441
0.0582933
0.0207137
0.107311
0.113299
0.118529
0.120901
0.11981
0.115255
0.107342
0.0955572
0.0791655
0.0578887
0.0350356
0.0135356
0.491544
0.713581
0.745449
0.771342
0.807084
0.848959
0.89147
0.924657
0.946469
0.958622
0.959923
0.948688
0.353675
0.587119
0.63919
0.673879
0.712266
0.754659
0.796509
0.829707
0.852721
0.8669
0.872691
0.870368
0.284181
0.485292
0.543898
0.583681
0.623437
0.665296
0.705832
0.738963
0.76334
0.779779
0.789904
0.794648
0.234594
0.402393
0.46023
0.501535
0.54131
0.581736
0.620432
0.653063
0.678328
0.696976
0.710566
0.720575
0.195186
0.333522
0.387159
0.427624
0.466204
0.50446
0.540844
0.572418
0.597885
0.617983
0.634193
0.647795
0.161863
0.274695
0.323186
0.361558
0.39806
0.433586
0.467249
0.497211
0.522219
0.542901
0.560595
0.576387
0.13346
0.222645
0.266697
0.302546
0.336479
0.368872
0.399494
0.427356
0.451335
0.471828
0.489968
0.506693
0.109318
0.175429
0.21615
0.249566
0.28068
0.309672
0.33701
0.362391
0.384881
0.404555
0.422297
0.438949
0.0877025
0.132717
0.170198
0.201364
0.229389
0.254747
0.278581
0.301181
0.321806
0.340161
0.356846
0.372639
0.0673324
0.0945535
0.1276
0.156003
0.180142
0.201408
0.221414
0.240956
0.259401
0.276019
0.291032
0.305253
0.0483003
0.0613405
0.0862327
0.108888
0.126945
0.142831
0.158102
0.173908
0.189613
0.203834
0.216191
0.227837
0.02142
0.0258949
0.0370161
0.0480518
0.0560972
0.0626732
0.0689217
0.0756504
0.0827058
0.0893121
0.0954502
0.101377
0.934196
0.92152
0.905481
0.884027
0.855691
0.820106
0.777505
0.727532
0.66719
0.587205
0.458475
0.272568
0.865151
0.859633
0.84862
0.828765
0.79759
0.753742
0.69627
0.623732
0.531613
0.408815
0.223321
0.0689646
0.796907
0.797431
0.790978
0.772931
0.740003
0.689836
0.620621
0.531142
0.419598
0.286161
0.139831
0.0492639
0.728342
0.733441
0.731098
0.715371
0.682481
0.629418
0.554234
0.457478
0.342837
0.223247
0.121338
0.0482293
0.659308
0.667803
0.668853
0.656009
0.625091
0.57291
0.497877
0.402811
0.296113
0.19528
0.118123
0.0485599
0.590299
0.601187
0.604902
0.595244
0.567893
0.519829
0.449756
0.362238
0.26783
0.182572
0.117503
0.0481359
0.521883
0.534287
0.540066
0.533521
0.51073
0.469088
0.406945
0.329785
0.248157
0.174872
0.116154
0.0459162
0.454431
0.467587
0.474812
0.47094
0.453167
0.419184
0.366414
0.300371
0.230546
0.166662
0.111626
0.0422415
0.387594
0.400715
0.408796
0.407139
0.393926
0.367669
0.325215
0.269925
0.210588
0.154532
0.102031
0.0368051
0.318896
0.331219
0.339558
0.339532
0.330085
0.310661
0.279014
0.234241
0.184264
0.135323
0.0854264
0.0295951
0.239101
0.249568
0.257279
0.25832
0.252159
0.238161
0.217083
0.185731
0.144547
0.103484
0.0583192
0.0207228
0.107344
0.113333
0.118563
0.120937
0.119847
0.115293
0.107377
0.0955895
0.079194
0.0579102
0.0350491
0.0135407
0.491671
0.713785
0.745673
0.771574
0.807316
0.849183
0.891683
0.92485
0.946644
0.958783
0.960067
0.948812
0.353779
0.587311
0.639406
0.674104
0.712492
0.754879
0.796717
0.829894
0.852889
0.867053
0.872827
0.870484
0.284272
0.485468
0.544101
0.583896
0.623654
0.665508
0.706033
0.739144
0.763501
0.779924
0.790031
0.794757
0.234674
0.402552
0.460418
0.501736
0.541516
0.581938
0.620625
0.653237
0.678484
0.697112
0.710686
0.720677
0.195256
0.333664
0.38733
0.427811
0.466396
0.504651
0.541028
0.572585
0.598034
0.618114
0.634305
0.64789
0.161924
0.27482
0.32334
0.361728
0.398238
0.433764
0.467422
0.49737
0.522362
0.543026
0.560702
0.576478
0.133511
0.222752
0.266833
0.302699
0.336641
0.369035
0.399654
0.427506
0.45147
0.471947
0.49007
0.506779
0.109362
0.175519
0.216267
0.249701
0.280825
0.30982
0.337156
0.362529
0.385006
0.404666
0.422394
0.439031
0.0877378
0.132788
0.170297
0.20148
0.229514
0.254876
0.278709
0.301304
0.32192
0.340263
0.356935
0.372716
0.0673599
0.0946075
0.12768
0.156098
0.180246
0.201515
0.221522
0.241061
0.259499
0.276108
0.291111
0.305322
0.0483201
0.0613759
0.0862917
0.108958
0.127022
0.142911
0.158182
0.173987
0.189689
0.203903
0.216253
0.227893
0.0214269
0.0259068
0.0370414
0.0480829
0.056131
0.0627079
0.0689564
0.0756851
0.0827389
0.0893426
0.0954781
0.101402
0.934305
0.921616
0.905568
0.884108
0.855768
0.82018
0.777576
0.727603
0.667264
0.587282
0.458545
0.272607
0.865252
0.859723
0.848703
0.828844
0.797667
0.753817
0.696344
0.623803
0.531679
0.408871
0.223348
0.0689691
0.797002
0.797516
0.791056
0.773007
0.740079
0.68991
0.620691
0.531205
0.419649
0.286194
0.13984
0.0492653
0.72843
0.733519
0.731171
0.715442
0.682551
0.629487
0.554299
0.457532
0.342875
0.223267
0.121343
0.0482304
0.65939
0.667876
0.66892
0.656074
0.625155
0.572973
0.497933
0.402856
0.296142
0.195294
0.118128
0.0485612
0.590376
0.601255
0.604964
0.595303
0.567952
0.519884
0.449804
0.362275
0.267852
0.182583
0.117508
0.0481372
0.521956
0.53435
0.540123
0.533574
0.510782
0.469136
0.406986
0.329816
0.248175
0.174882
0.116159
0.0459176
0.4545
0.467646
0.474864
0.470987
0.453213
0.419226
0.366449
0.300398
0.230562
0.166672
0.111631
0.0422428
0.387659
0.400769
0.408843
0.40718
0.393966
0.367704
0.325244
0.269948
0.210601
0.154541
0.102036
0.0368063
0.318955
0.331267
0.3396
0.339567
0.330119
0.310691
0.279039
0.234261
0.184276
0.135331
0.0854303
0.0295959
0.239149
0.249607
0.257313
0.258348
0.252186
0.238184
0.217103
0.185747
0.144557
0.10349
0.058322
0.0207234
0.107365
0.11335
0.118578
0.120949
0.119858
0.115303
0.107387
0.0955973
0.0791995
0.0579137
0.035051
0.0135413
0.491778
0.713938
0.74583
0.771735
0.807485
0.849359
0.891863
0.92503
0.946822
0.958957
0.960231
0.948955
0.35387
0.587447
0.639547
0.67425
0.712643
0.755036
0.796878
0.830053
0.853045
0.867204
0.872968
0.870606
0.284351
0.485583
0.544222
0.584021
0.623784
0.665643
0.706171
0.739281
0.763634
0.780052
0.79015
0.794858
0.234741
0.402647
0.460517
0.50184
0.541624
0.58205
0.62074
0.653351
0.678595
0.697218
0.710783
0.720758
0.195312
0.333741
0.38741
0.427893
0.466482
0.504741
0.541119
0.572677
0.598124
0.6182
0.634383
0.647953
0.16197
0.274881
0.323403
0.361792
0.398304
0.433833
0.467492
0.49744
0.522431
0.543093
0.560762
0.576525
0.13355
0.2228
0.26688
0.302746
0.336689
0.369086
0.399705
0.427557
0.451522
0.471996
0.490114
0.506813
0.109394
0.175554
0.216301
0.249733
0.280858
0.309855
0.337191
0.362564
0.385042
0.4047
0.422424
0.439053
0.0877636
0.132813
0.170319
0.201501
0.229536
0.254901
0.278733
0.301327
0.321942
0.340285
0.356954
0.372728
0.06738
0.0946238
0.127692
0.15611
0.18026
0.201531
0.221538
0.241075
0.259512
0.276121
0.291121
0.305327
0.0483348
0.0613869
0.0862964
0.108965
0.127031
0.142922
0.158193
0.173995
0.189695
0.203909
0.216257
0.227893
0.0214346
0.0259128
0.0370435
0.0480862
0.0561361
0.0627148
0.0689638
0.0756906
0.0827438
0.0893475
0.095482
0.101404
0.934423
0.921708
0.905635
0.884149
0.855784
0.820168
0.777533
0.727527
0.667158
0.587151
0.458408
0.272524
0.86535
0.859794
0.848744
0.828857
0.797654
0.753778
0.696279
0.623715
0.53158
0.408776
0.223299
0.0689592
0.797081
0.797569
0.791077
0.772997
0.740044
0.689852
0.620616
0.531122
0.419573
0.286141
0.139828
0.0492624
0.728492
0.733557
0.731175
0.715416
0.682502
0.629419
0.554221
0.457458
0.34282
0.223238
0.121336
0.0482276
0.659436
0.6679
0.668914
0.656039
0.625098
0.572901
0.497858
0.402791
0.296099
0.195273
0.11812
0.048558
0.590408
0.601268
0.604951
0.595263
0.567891
0.519813
0.449733
0.362217
0.267816
0.182564
0.117498
0.0481327
0.521977
0.534355
0.540104
0.533531
0.510722
0.469068
0.40692
0.329763
0.248142
0.174862
0.116148
0.0459127
0.454511
0.467645
0.474842
0.470945
0.453157
0.419163
0.366387
0.300349
0.230529
0.166651
0.111617
0.0422375
0.387663
0.400763
0.40882
0.407142
0.393916
0.367648
0.325189
0.269903
0.21057
0.154518
0.102021
0.0368011
0.318953
0.331259
0.339578
0.339533
0.330074
0.310643
0.278991
0.23422
0.184246
0.13531
0.0854166
0.0295912
0.239145
0.249598
0.257294
0.258319
0.25215
0.238146
0.217066
0.185713
0.14453
0.103471
0.0583111
0.0207196
0.107366
0.113349
0.118573
0.120938
0.119843
0.115286
0.107369
0.0955811
0.0791847
0.0579027
0.0350437
0.0135381
0.491584
0.713632
0.745502
0.771397
0.807142
0.849022
0.891542
0.924744
0.946569
0.958734
0.960055
0.94882
0.353709
0.587166
0.639238
0.673927
0.712316
0.754714
0.796571
0.829783
0.852812
0.867002
0.872813
0.870495
0.284211
0.485333
0.543939
0.583721
0.623478
0.66534
0.705882
0.739027
0.763418
0.77987
0.790015
0.794761
0.23462
0.402428
0.460263
0.501567
0.541342
0.581769
0.62047
0.653113
0.678392
0.697055
0.710663
0.720667
0.195209
0.33355
0.387186
0.427649
0.466227
0.504484
0.540871
0.572455
0.597936
0.618052
0.634279
0.647855
0.161883
0.274719
0.323207
0.361576
0.398076
0.433601
0.467266
0.497236
0.522257
0.542956
0.560664
0.576426
0.133477
0.222665
0.266714
0.302558
0.336488
0.36888
0.399502
0.427371
0.451362
0.471869
0.490018
0.506716
0.109334
0.175446
0.216162
0.249574
0.280685
0.309675
0.337013
0.362398
0.384897
0.404583
0.422332
0.438963
0.0877158
0.13273
0.170208
0.201369
0.22939
0.254746
0.278579
0.301182
0.321815
0.340179
0.356868
0.372645
0.067344
0.094565
0.127607
0.156005
0.180141
0.201405
0.221411
0.240954
0.259405
0.276031
0.291046
0.305254
0.0483102
0.0613499
0.0862378
0.108889
0.126944
0.142828
0.158099
0.173905
0.189615
0.203841
0.2162
0.227834
0.0214245
0.0258995
0.0370185
0.0480528
0.056097
0.0626724
0.0689206
0.07565
0.0827075
0.0893168
0.095456
0.101376
)
;

boundaryField
{
    rotor
    {
        type            kqRWallFunction;
        value           nonuniform List<scalar> 
192
(
0.0340971
0.0453003
0.0506183
0.0505389
0.0472869
0.0423564
0.0448365
0.0766455
0.196679
0.26564
0.294884
0.31449
0.325888
0.331712
0.3323
0.331018
0.325755
0.314077
0.297063
0.272498
0.241344
0.200376
0.151854
0.117971
0.0341416
0.0453529
0.0506624
0.0505799
0.0473238
0.0423823
0.0448501
0.0765879
0.196601
0.265593
0.294846
0.314452
0.325858
0.331685
0.33228
0.331001
0.325747
0.314071
0.297065
0.2725
0.241351
0.200383
0.151863
0.117979
0.0341361
0.045336
0.0506416
0.0505549
0.047289
0.0423562
0.0448521
0.076802
0.196845
0.265728
0.294951
0.314559
0.325952
0.331775
0.332356
0.331073
0.325796
0.314117
0.297092
0.272523
0.241362
0.200386
0.151858
0.117972
0.0341426
0.045353
0.0506632
0.0505804
0.0473228
0.0423831
0.0448567
0.076642
0.19667
0.265638
0.294885
0.314492
0.325895
0.331722
0.332314
0.331034
0.325774
0.314097
0.297085
0.272518
0.241362
0.200392
0.151869
0.117985
0.0340971
0.0591733
0.0733563
0.100103
0.115852
0.126766
0.133673
0.140026
0.150533
0.168694
0.202254
0.58356
0.117985
0.277944
0.40541
0.504215
0.590751
0.674213
0.754399
0.846471
0.950662
1.06136
1.19206
1.38315
0.0341416
0.0592073
0.0733856
0.100118
0.115854
0.126752
0.133662
0.140017
0.150529
0.168693
0.202259
0.5836
0.117971
0.277919
0.405381
0.504179
0.59071
0.674166
0.754343
0.846405
0.950588
1.06128
1.19198
1.38307
0.0341361
0.059207
0.0733913
0.100154
0.11591
0.126829
0.133722
0.14006
0.150541
0.168672
0.202228
0.583643
0.117979
0.277934
0.405399
0.504201
0.590737
0.674198
0.754382
0.846451
0.950644
1.06134
1.19205
1.38316
0.0341426
0.0592114
0.0733917
0.100126
0.115862
0.12676
0.133668
0.14002
0.150531
0.168697
0.20227
0.583657
0.117972
0.277925
0.4054
0.504216
0.590762
0.674235
0.754427
0.846509
0.950711
1.06142
1.19214
1.38326
)
;
    }
    stator
    {
        type            kqRWallFunction;
        value           nonuniform List<scalar> 
192
(
0.107311
0.113299
0.118529
0.120901
0.11981
0.115255
0.107342
0.0955572
0.0791655
0.0578887
0.0350356
0.0135356
0.02142
0.0258949
0.0370161
0.0480518
0.0560972
0.0626732
0.0689217
0.0756504
0.0827058
0.0893121
0.0954502
0.101377
0.107344
0.113333
0.118563
0.120937
0.119847
0.115293
0.107377
0.0955895
0.079194
0.0579102
0.0350491
0.0135407
0.0214269
0.0259068
0.0370414
0.0480829
0.056131
0.0627079
0.0689564
0.0756851
0.0827389
0.0893426
0.0954781
0.101402
0.107365
0.11335
0.118578
0.120949
0.119858
0.115303
0.107387
0.0955973
0.0791995
0.0579137
0.035051
0.0135413
0.0214346
0.0259128
0.0370435
0.0480862
0.0561361
0.0627148
0.0689638
0.0756906
0.0827438
0.0893475
0.095482
0.101404
0.107366
0.113349
0.118573
0.120938
0.119843
0.115286
0.107369