/*--------------------------------*- C++ -*----------------------------------*\
| =========                 |                                                 |
| \\      /  F ield         | OpenFOAM: The Open Source CFD Toolbox           |
|  \\    /   O peration     | Version:  4.0                                   |
|   \\  /    A nd           | Web:      www.OpenFOAM.org                      |
|    \\/     M anipulation  |                                                 |
\*---------------------------------------------------------------------------*/
FoamFile
{
    version     2.0;
    format      ascii;
    class       volScalarField;
    location    "400";
    object      nut;
}
// * * * * * * * * * * * * * * * * * * * * * * * * * * * * * * * * * * * * * //

dimensions      [0 2 -1 0 0 0 0];

internalField   nonuniform List<scalar> 
3072
(
2.88439e-05
6.08783e-05
6.43407e-05
6.42962e-05
6.22186e-05
5.88581e-05
6.0459e-05
7.84412e-05
0.000126281
0.000147109
0.000155077
0.000160163
4.24221e-05
0.000160595
0.000202261
0.000189906
0.000112975
7.78616e-05
0.000133893
0.000162778
0.000234043
0.000326936
0.000451358
0.000592647
5.21862e-05
0.000211961
0.000267353
0.000236855
0.000206324
0.000195536
0.000279894
0.000413475
0.000596847
0.000820018
0.00104217
0.00124368
6.67515e-05
0.000307009
0.000313376
0.000286199
0.000281674
0.000368602
0.000563551
0.000790313
0.00104577
0.00130976
0.00154995
0.0017583
7.80461e-05
0.000363539
0.000382396
0.000372104
0.000450515
0.000658051
0.000899541
0.00116004
0.00143288
0.00169811
0.0019357
0.00214074
8.81658e-05
0.000432185
0.000495336
0.000543649
0.000709307
0.000947923
0.00120781
0.00147627
0.0017399
0.00198876
0.00221181
0.00240763
9.72705e-05
0.000506547
0.000636628
0.000764899
0.00098746
0.00123927
0.00149629
0.00175261
0.00199816
0.00222377
0.00242491
0.00260001
0.000106458
0.000608417
0.000824344
0.00105384
0.00130298
0.00154855
0.00178466
0.00200813
0.00221491
0.00240137
0.00256695
0.00271193
0.000117558
0.000731018
0.00108221
0.0013671
0.00161354
0.00183199
0.00202727
0.00220093
0.002357
0.00249698
0.00262422
0.00273906
0.000132034
0.000839012
0.00127607
0.00157825
0.00180759
0.00199324
0.00215064
0.00228936
0.00241342
0.00252092
0.00262198
0.00271466
0.000152852
0.00078926
0.00135032
0.0016798
0.00190803
0.00208498
0.00222781
0.00234759
0.00244651
0.00253198
0.00260942
0.00268096
0.000273668
0.0007627
0.00142728
0.00180191
0.00201127
0.00217623
0.00231379
0.00241295
0.00249221
0.00255721
0.00261333
0.00266396
0.000163082
0.00016456
0.000164742
0.000164408
0.000163126
0.000160184
0.000155813
0.000149237
0.000140477
0.000127999
0.000111438
5.36355e-05
0.00073593
0.000857844
0.000944288
0.000972083
0.000945335
0.000887328
0.000794525
0.000667073
0.00051162
0.000311768
0.000156877
9.20049e-05
0.00141508
0.00153761
0.0016021
0.0016108
0.00156739
0.00147498
0.00133319
0.00113945
0.000892746
0.000596524
0.000265248
0.000122815
0.00192863
0.00205347
0.00212966
0.00215598
0.00212997
0.00204657
0.00189891
0.00167502
0.00136884
0.000973402
0.000475265
0.000149996
0.00230983
0.0024398
0.00252841
0.00257295
0.00256926
0.00251046
0.0023832
0.00216602
0.00181799
0.00133442
0.000698671
0.00017647
0.00257252
0.00270449
0.00280255
0.00286489
0.00288822
0.00286511
0.00277748
0.00259364
0.00226782
0.00173304
0.000982783
0.000203597
0.00274848
0.0028705
0.0029667
0.00303819
0.00308531
0.0031029
0.00307256
0.00295257
0.00267002
0.00212783
0.00127713
0.000231313
0.0028366
0.00294243
0.00303141
0.00310599
0.0031692
0.00322157
0.00325059
0.00321395
0.00301789
0.00250715
0.00157086
0.000261913
0.00284242
0.00293538
0.00301896
0.0030934
0.00316464
0.00324109
0.00331915
0.00336957
0.0032912
0.0028606
0.00183269
0.000295472
0.00280058
0.00288256
0.00296256
0.0030411
0.00311495
0.0031939
0.00330081
0.0034232
0.00347736
0.00319141
0.00213699
0.000331123
0.00274904
0.00281668
0.0028867
0.00296651
0.00305906
0.00313537
0.00324121
0.00339712
0.00355864
0.00347408
0.00250216
0.000370978
0.00271348
0.00276672
0.00282681
0.00289804
0.00300203
0.00309166
0.00318718
0.00334605
0.00356064
0.00365546
0.00292547
0.000421223
2.88514e-05
6.091e-05
6.43681e-05
6.43231e-05
6.22434e-05
5.88769e-05
6.04658e-05
7.84175e-05
0.000126258
0.000147097
0.000155068
0.000160155
4.2434e-05
0.000160656
0.000202349
0.000190014
0.00011307
7.78868e-05
0.00013388
0.000162736
0.000233949
0.000326849
0.000451229
0.000592508
5.21972e-05
0.000212019
0.000267421
0.000236936
0.000206363
0.000195529
0.000279744
0.000413327
0.000596646
0.000819802
0.00104194
0.00124343
6.6758e-05
0.000307063
0.00031344
0.000286245
0.000281619
0.000368414
0.000563332
0.000790087
0.00104551
0.00130947
0.00154964
0.00175798
7.80491e-05
0.000363531
0.000382341
0.000371989
0.000450307
0.000657824
0.00089932
0.00115979
0.00143257
0.00169778
0.00193535
0.00214038
8.81636e-05
0.000432126
0.000495208
0.000543476
0.000709095
0.000947719
0.00120759
0.00147601
0.00173962
0.00198845
0.00221147
0.00240727
9.72689e-05
0.000506473
0.000636498
0.000764725
0.000987283
0.0012391
0.00149609
0.00175238
0.00199791
0.00222349
0.0024246
0.00259968
0.000106457
0.000608375
0.000824254
0.00105374
0.00130287
0.00154843
0.00178452
0.00200796
0.00221472
0.00240114
0.0025667
0.00271165
0.000117557
0.000731022
0.0010822
0.00136708
0.00161352
0.00183195
0.00202721
0.00220083
0.00235688
0.00249683
0.00262404
0.00273885
0.000132035
0.000839038
0.0012761
0.0015783
0.00180763
0.00199327
0.00215066
0.00228938
0.00241341
0.00252089
0.00262192
0.00271457
0.000152853
0.000789277
0.00135038
0.00167989
0.00190815
0.00208511
0.00222795
0.00234772
0.00244663
0.00253208
0.00260949
0.002681
0.000273674
0.000762752
0.00142739
0.00180205
0.00201146
0.00217643
0.00231401
0.00241317
0.00249242
0.00255741
0.0026135
0.00266411
0.000163076
0.000164555
0.000164739
0.000164405
0.000163125
0.000160184
0.000155814
0.000149239
0.000140479
0.000128002
0.000111442
5.36375e-05
0.000735793
0.000857709
0.00094418
0.000971986
0.000945255
0.000887264
0.00079448
0.000667048
0.000511608
0.000311765
0.00015688
9.20077e-05
0.00141482
0.00153736
0.00160187
0.00161062
0.00156724
0.00147486
0.00133311
0.0011394
0.000892722
0.000596518
0.00026525
0.000122818
0.00192831
0.00205316
0.00212937
0.00215572
0.00212975
0.0020464
0.00189878
0.00167494
0.0013688
0.000973385
0.000475265
0.000149999
0.00230947
0.00243944
0.00252808
0.00257265
0.002569
0.00251025
0.00238304
0.00216592
0.00181792
0.0013344
0.000698674
0.000176475
0.00257215
0.00270412
0.0028022
0.00286456
0.00288793
0.00286487
0.00277729
0.00259352
0.00226776
0.00173303
0.000982791
0.000203603
0.00274814
0.00287015
0.00296636
0.00303786
0.00308501
0.00310265
0.00307236
0.00295245
0.00266997
0.00212783
0.00127715
0.000231319
0.0028363
0.00294212
0.0030311
0.00310569
0.00316893
0.00322133
0.0032504
0.00321383
0.00301784
0.00250716
0.00157089
0.000261921
0.00284219
0.00293513
0.0030187
0.00309316
0.00316441
0.00324088
0.00331899
0.00336948
0.00329118
0.00286063
0.00183273
0.000295481
0.00280047
0.00288242
0.0029624
0.00304095
0.0031148
0.00319377
0.00330071
0.00342315
0.00347738
0.00319147
0.00213706
0.000331134
0.00274905
0.00281667
0.00288666
0.00296646
0.00305902
0.00313534
0.00324119
0.00339714
0.00355873
0.00347421
0.00250225
0.00037099
0.00271361
0.00276682
0.00282689
0.0028981
0.0030021
0.00309175
0.00318728
0.00334617
0.0035608
0.00365566
0.00292561
0.000421237
2.88483e-05
6.0897e-05
6.43529e-05
6.43053e-05
6.22187e-05
5.88577e-05
6.04738e-05
7.85194e-05
0.000126336
0.000147134
0.000155095
0.000160182
4.24318e-05
0.000160652
0.000202265
0.000189786
0.000112808
7.78704e-05
0.000133937
0.000162862
0.000234248
0.000327121
0.00045164
0.000592953
5.21966e-05
0.000212024
0.000267291
0.000236656
0.000206208
0.000195529
0.000280233
0.000413829
0.000597332
0.000820535
0.00104271
0.00124422
6.6767e-05
0.000306985
0.000313263
0.000286081
0.000281822
0.00036908
0.000564151
0.000790944
0.00104645
0.00131044
0.00155062
0.00175897
7.80648e-05
0.000363594
0.000382564
0.000372396
0.000451109
0.000658837
0.000900273
0.00116079
0.00143364
0.00169887
0.00193645
0.00214148
8.81874e-05
0.000432377
0.000495708
0.000544232
0.000710116
0.000948705
0.00120861
0.00147706
0.0017407
0.00198956
0.0022126
0.00240841
9.72877e-05
0.000506751
0.000637104
0.000765596
0.000988231
0.00124005
0.00149709
0.00175342
0.00199899
0.00222459
0.00242572
0.00260081
0.000106471
0.000608553
0.000824723
0.00105439
0.0013036
0.00154924
0.0017854
0.0020089
0.0022157
0.00240216
0.00256774
0.00271271
0.000117561
0.00073096
0.00108238
0.00136741
0.00161396
0.00183251
0.00202787
0.00220157
0.00235768
0.00249768
0.00262494
0.00273979
0.000132025
0.000838884
0.00127613
0.00157843
0.00180786
0.0019936
0.00215108
0.00228989
0.00241402
0.00252154
0.00262264
0.00271535
0.000152842
0.000789206
0.00135038
0.00167993
0.00190818
0.00208523
0.00222813
0.00234803
0.00244703
0.00253255
0.00261004
0.00268161
0.000273685
0.000762784
0.00142739
0.00180207
0.00201146
0.00217648
0.00231411
0.00241335
0.00249267
0.00255773
0.0026139
0.00266456
0.000163099
0.000164576
0.000164756
0.000164422
0.000163137
0.000160195
0.00015582
0.000149244
0.000140482
0.000128003
0.00011144
5.36359e-05
0.000736251
0.000858167
0.000944576
0.000972358
0.000945588
0.000887555
0.000794716
0.000667213
0.000511708
0.000311809
0.000156889
9.20062e-05
0.00141561
0.00153814
0.00160259
0.00161124
0.00156779
0.00147534
0.0013335
0.00113968
0.000892914
0.000596623
0.000265278
0.000122818
0.00192928
0.0020541
0.00213027
0.00215655
0.0021305
0.00204706
0.00189933
0.00167535
0.0013691
0.000973561
0.00047533
0.000150001
0.00231056
0.0024405
0.00252909
0.0025736
0.00256988
0.00251103
0.00238371
0.00216645
0.00181833
0.00133465
0.000698764
0.000176478
0.00257329
0.00270524
0.00280329
0.00286561
0.00288892
0.00286578
0.0027781
0.00259417
0.00226824
0.00173334
0.000982917
0.000203608
0.00274927
0.00287128
0.00296747
0.00303895
0.00308606
0.00310364
0.00307326
0.00295321
0.00267055
0.00212819
0.00127731
0.000231326
0.00283738
0.0029432
0.00303219
0.00310677
0.00316999
0.00322236
0.00325137
0.00321468
0.00301851
0.0025076
0.00157107
0.000261929
0.00284316
0.00293614
0.00301973
0.0030942
0.00316545
0.00324191
0.00331999
0.0033704
0.00329194
0.00286114
0.00183293
0.000295492
0.0028013
0.00288331
0.00296332
0.00304189
0.00311577
0.00319475
0.0033017
0.0034241
0.00347822
0.00319206
0.00213727
0.000331146
0.00274972
0.00281739
0.00288743
0.00296729
0.00305986
0.00313621
0.00324211
0.00339808
0.00355961
0.00347485
0.00250247
0.000371003
0.00271412
0.00276739
0.00282751
0.00289879
0.00300282
0.00309248
0.00318807
0.00334703
0.0035617
0.00365639
0.00292586
0.000421253
2.88518e-05
6.09098e-05
6.43684e-05
6.43232e-05
6.22424e-05
5.88772e-05
6.04716e-05
7.84442e-05
0.00012628
0.00014711
0.000155078
0.000160165
4.24353e-05
0.00016066
0.000202348
0.000189994
0.000113044
7.78989e-05
0.000133897
0.000162759
0.000234015
0.00032691
0.000451325
0.000592615
5.21992e-05
0.000212029
0.000267425
0.000236927
0.000206363
0.000195543
0.000279809
0.000413415
0.000596775
0.000819952
0.00104211
0.00124361
6.67605e-05
0.000307068
0.00031344
0.000286247
0.000281642
0.000368488
0.000563439
0.000790221
0.00104568
0.00130966
0.00154984
0.0017582
7.80517e-05
0.000363542
0.00038236
0.000372018
0.000450367
0.000657908
0.000899432
0.00115993
0.00143276
0.00169799
0.00193557
0.00214061
8.81661e-05
0.000432138
0.00049522
0.000543501
0.000709138
0.000947791
0.00120769
0.00147615
0.00173979
0.00198864
0.00221168
0.00240749
9.72709e-05
0.000506465
0.000636481
0.000764708
0.000987292
0.00123914
0.00149617
0.0017525
0.00199806
0.00222367
0.0024248
0.0025999
0.000106458
0.000608353
0.000824213
0.00105371
0.00130287
0.00154846
0.00178459
0.00200807
0.00221486
0.00240131
0.00256689
0.00271186
0.000117558
0.000730994
0.00108217
0.0013671
0.00161357
0.00183203
0.00202732
0.00220097
0.00235704
0.00249702
0.00262425
0.00273908
0.000132036
0.000839056
0.00127616
0.0015784
0.00180775
0.00199341
0.00215082
0.00228955
0.00241361
0.0025211
0.00262215
0.00271481
0.000152857
0.000789349
0.0013505
0.00168004
0.00190832
0.0020853
0.00222815
0.00234793
0.00244685
0.00253232
0.00260974
0.00268127
0.000273688
0.000762866
0.00142754
0.00180225
0.00201167
0.00217667
0.00231426
0.00241343
0.00249269
0.00255768
0.00261379
0.0026644
0.000163085
0.000164564
0.000164747
0.000164413
0.000163132
0.00016019
0.000155819
0.000149243
0.000140483
0.000128005
0.000111444
5.36387e-05
0.000735909
0.000857828
0.000944288
0.000972089
0.000945349
0.000887349
0.000794552
0.000667102
0.000511648
0.000311785
0.000156886
9.20094e-05
0.00141501
0.00153755
0.00160205
0.00161079
0.0015674
0.001475
0.00133323
0.00113949
0.000892791
0.00059656
0.000265263
0.00012282
0.00192853
0.00205338
0.00212959
0.00215593
0.00212995
0.00204658
0.00189894
0.00167507
0.0013689
0.000973446
0.000475291
0.000150001
0.00230971
0.00243968
0.00252831
0.00257287
0.00256922
0.00251045
0.00238322
0.00216607
0.00181805
0.00133448
0.000698711
0.000176477
0.00257239
0.00270436
0.00280244
0.0028648
0.00288816
0.00286509
0.0027775
0.0025937
0.0022679
0.00173313
0.000982838
0.000203605
0.00274837
0.00287039
0.0029666
0.00303811
0.00308525
0.00310288
0.00307258
0.00295264
0.00267013
0.00212794
0.00127721
0.000231322
0.00283654
0.00294236
0.00303135
0.00310594
0.00316918
0.00322158
0.00325064
0.00321405
0.00301802
0.00250729
0.00157095
0.000261924
0.00284243
0.00293539
0.00301897
0.00309343
0.00316468
0.00324115
0.00331925
0.00336971
0.00329137
0.00286077
0.0018328
0.000295485
0.00280073
0.0028827
0.00296269
0.00304123
0.00311509
0.00319406
0.00330098
0.0034234
0.00347758
0.00319161
0.00213712
0.000331137
0.00274933
0.00281696
0.00288697
0.00296677
0.00305931
0.00313563
0.00324148
0.00339739
0.00355891
0.00347432
0.0025023
0.000370992
0.00271391
0.00276714
0.00282721
0.00289842
0.0030024
0.00309204
0.00318755
0.0033464
0.00356096
0.00365574
0.00292561
0.000421237
0.00169077
0.00177429
0.00190986
0.00206574
0.00220272
0.00232539
0.0024278
0.00249919
0.00255559
0.00259922
0.00263498
0.00266606
0.00276457
0.0025827
0.00251441
0.00250712
0.00252472
0.00255102
0.0025745
0.00259808
0.00262466
0.00264492
0.0026621
0.00267829
0.00348016
0.00325335
0.00307833
0.00295625
0.00286251
0.0028012
0.00276016
0.00273615
0.00272461
0.00271059
0.00270049
0.00270432
0.00372682
0.00355198
0.00337232
0.0032007
0.00306224
0.00294937
0.00286162
0.0028001
0.00276548
0.0027488
0.00275034
0.00277363
0.00269929
0.00274196
0.00279698
0.00286704
0.00297426
0.00307521
0.00316993
0.00332613
0.0035423
0.00379306
0.0038254
0.00178621
0.0027036
0.00274653
0.00280577
0.00288435
0.00298651
0.00309255
0.00319542
0.0033465
0.00354105
0.00377328
0.00418882
0.00309632
0.00273554
0.00279538
0.00287032
0.00295893
0.0030569
0.00317099
0.00328778
0.0034212
0.00358242
0.0037533
0.004125
0.00374757
0.00282611
0.00292115
0.00300745
0.00310558
0.003211
0.00332551
0.00344583
0.00356262
0.00368778
0.00379381
0.00402171
0.00391125
0.00169092
0.00177448
0.00191006
0.00206597
0.00220298
0.00232565
0.00242808
0.00249947
0.00255586
0.00259949
0.00263523
0.00266629
0.00276479
0.00258299
0.0025147
0.00250744
0.00252505
0.00255135
0.00257483
0.00259841
0.00262499
0.00264523
0.0026624
0.00267857
0.00348029
0.00325376
0.00307875
0.00295666
0.0028629
0.00280158
0.00276054
0.00273653
0.00272497
0.00271094
0.00270082
0.00270463
0.00372688
0.00355229
0.00337284
0.00320117
0.00306269
0.00294979
0.00286203
0.00280049
0.00276584
0.00274915
0.00275069
0.00277398
0.0026995
0.00274215
0.00279715
0.00286721
0.00297444
0.00307541
0.00317015
0.00332638
0.00354259
0.00379338
0.00382566
0.00178631
0.00270386
0.00274678
0.00280602
0.00288461
0.00298679
0.00309285
0.00319575
0.00334687
0.00354146
0.00377371
0.00418924
0.00309657
0.00273585
0.00279569
0.00287065
0.00295929
0.00305728
0.00317142
0.00328825
0.0034217
0.00358295
0.00375385
0.00412554
0.00374799
0.00282647
0.00292154
0.00300788
0.00310606
0.00321153
0.00332609
0.00344642
0.00356324
0.00368841
0.00379444
0.00402233
0.00391176
0.00169104
0.0017746
0.00191019
0.00206608
0.00220306
0.00232576
0.00242819
0.00249962
0.00255606
0.00259973
0.00263552
0.00266662
0.00276504
0.00258321
0.00251494
0.00250763
0.00252523
0.00255153
0.00257501
0.00259859
0.00262518
0.00264545
0.00266263
0.00267883
0.00348068
0.00325409
0.00307906
0.00295693
0.00286318
0.00280184
0.00276078
0.00273675
0.00272516
0.00271112
0.00270099
0.00270485
0.00372735
0.0035527
0.00337319
0.00320149
0.00306298
0.00295007
0.00286229
0.00280072
0.00276602
0.00274932
0.00275087
0.00277416
0.00269988
0.00274258
0.00279763
0.00286774
0.00297502
0.00307601
0.00317081
0.00332713
0.00354341
0.00379415
0.00382604
0.00178637
0.00270416
0.00274712
0.0028064
0.00288505
0.00298725
0.00309336
0.00319633
0.00334751
0.00354218
0.00377443
0.00418984
0.00309682
0.0027361
0.00279597
0.00287098
0.00295964
0.00305769
0.00317188
0.00328873
0.00342226
0.00358357
0.00375451
0.00412622
0.00374844
0.0028267
0.00292181
0.00300819
0.00310642
0.00321193
0.00332653
0.00344686
0.00356375
0.00368895
0.00379503
0.00402294
0.00391227
0.00169102
0.00177462
0.00191027
0.00206622
0.00220325
0.00232596
0.00242839
0.00249979
0.00255618
0.00259981
0.00263554
0.00266661
0.00276517
0.00258331
0.00251505
0.00250777
0.0025254
0.00255171
0.0025752
0.00259878
0.00262536
0.00264559
0.00266274
0.00267891
0.00348101
0.00325434
0.00307925
0.00295711
0.00286336
0.00280202
0.00276097
0.00273695
0.00272535
0.00271128
0.00270112
0.00270498
0.00372776
0.00355303
0.00337343
0.00320169
0.00306317
0.00295025
0.00286246
0.00280089
0.00276617
0.00274946
0.00275096
0.00277422
0.00269983
0.00274248
0.00279749
0.00286752
0.00297472
0.00307567
0.00317036
0.00332652
0.00354266
0.00379339
0.00382557
0.00178623
0.0027042
0.00274712
0.00280633
0.00288488
0.00298702
0.00309303
0.00319586
0.00334691
0.00354142
0.00377362
0.00418906
0.00309639
0.00273617
0.00279598
0.00287085
0.00295946
0.00305738
0.00317144
0.00328821
0.00342158
0.00358277
0.00375363
0.00412526
0.00374774
0.00282664
0.00292166
0.0030079
0.003106
0.00321139
0.0033259
0.00344618
0.00356294
0.00368809
0.00379411
0.00402196
0.00391147
0.00359441
0.00341682
0.00324506
0.003089
0.00296155
0.00286056
0.0027873
0.0027426
0.00272599
0.0027333
0.00278444
0.00288107
0.00350476
0.00333225
0.00316805
0.00301842
0.00289097
0.00278578
0.00270556
0.00265058
0.00261958
0.00260879
0.00264743
0.00274482
0.00344022
0.00327799
0.00311976
0.00296894
0.00283066
0.00270579
0.00259575
0.0024994
0.00240612
0.0023179
0.00225936
0.00226839
0.00338561
0.00323833
0.00308653
0.00293103
0.00277406
0.00262031
0.00246499
0.00230066
0.00211338
0.00189181
0.00163671
0.00143033
0.00299734
0.00318033
0.00329695
0.00339634
0.0035008
0.0036028
0.00369426
0.00377241
0.00383799
0.00388391
0.003909
0.00378932
0.00290575
0.00325407
0.00340792
0.00351104
0.0036121
0.00370298
0.00377872
0.00383273
0.00386143
0.00386495
0.00383153
0.00368611
0.00243267
0.00314175
0.00339313
0.00351598
0.00362065
0.00370589
0.00377438
0.00381137
0.00382082
0.00380985
0.00375211
0.00360581
0.0014633
0.00279793
0.00326623
0.00344778
0.00356104
0.00364623
0.00371293
0.00374193
0.00374462
0.00372902
0.00366752
0.00353388
0.0035947
0.00341724
0.00324556
0.00308946
0.00296198
0.00286096
0.00278768
0.00274295
0.00272632
0.00273363
0.00278479
0.00288146
0.00350516
0.00333272
0.00316854
0.00301888
0.00289139
0.00278615
0.0027059
0.00265089
0.00261987
0.00260907
0.00264774
0.0027452
0.00344067
0.00327847
0.00312025
0.0029694
0.00283107
0.00270614
0.00259606
0.00249969
0.00240635
0.00231811
0.00225957
0.00226865
0.00338607
0.00323881
0.00308702
0.00293148
0.00277446
0.00262065
0.00246528
0.00230092
0.00211358
0.00189197
0.00163686
0.00143044
0.00299779
0.00318085
0.00329754
0.00339699
0.00350147
0.00360349
0.00369494
0.00377308
0.00383864
0.00388453
0.00390958
0.00378982
0.0029062
0.00325467
0.00340863
0.00351181
0.00361288
0.00370375
0.00377947
0.00383344
0.00386209
0.00386558
0.0038321
0.0036866
0.00243304
0.00314235
0.00339391
0.00351683
0.00362151
0.00370673
0.00377519
0.00381211
0.00382151
0.00381049
0.00375267
0.0036063
0.00146348
0.00279848
0.00326704
0.00344868
0.00356196
0.00364713
0.00371378
0.0037427
0.00374534
0.00372967
0.00366808
0.00353437
0.00359515
0.00341764
0.0032459
0.00308977
0.00296226
0.00286122
0.00278791
0.00274315
0.00272649
0.00273381
0.00278498
0.00288168
0.00350559
0.0033331
0.00316887
0.00301917
0.00289165
0.00278639
0.0027061
0.00265106
0.00262002
0.00260922
0.00264792
0.00274544
0.0034411
0.00327884
0.00312056
0.00296968
0.00283132
0.00270635
0.00259624
0.00249985
0.00240646
0.00231821
0.00225968
0.00226881
0.00338648
0.00323916
0.00308732
0.00293174
0.00277468
0.00262084
0.00246543
0.00230104
0.00211366
0.00189204
0.00163694
0.00143051
0.00299806
0.00318114
0.00329788
0.00339737
0.00350185
0.00360391
0.00369536
0.00377353
0.00383912
0.00388503
0.00391006
0.00379023
0.00290644
0.00325497
0.00340897
0.00351216
0.00361323
0.00370412
0.00377985
0.00383385
0.00386251
0.003866
0.00383251
0.00368695
0.00243327
0.00314263
0.00339423
0.00351714
0.00362182
0.00370705
0.00377552
0.00381247
0.00382188
0.00381086
0.00375302
0.0036066
0.0014636
0.00279874
0.00326731
0.00344895
0.00356222
0.0036474
0.00371406
0.003743
0.00374566
0.00373
0.00366838
0.00353464
0.00359548
0.0034179
0.00324611
0.00308995
0.00296243
0.00286137
0.00278803
0.00274326
0.00272654
0.00273384
0.00278489
0.00288147
0.00350587
0.00333331
0.00316905
0.00301933
0.0028918
0.00278652
0.00270618
0.0026511
0.00262001
0.00260919
0.00264772
0.00274507
0.00344134
0.00327902
0.00312071
0.00296981
0.00283145
0.00270644
0.00259628
0.0024998
0.00240647
0.00231818
0.00225953
0.00226852
0.00338671
0.00323933
0.00308745
0.00293185
0.00277478
0.00262092
0.00246549
0.00230102
0.00211367
0.00189199
0.00163679
0.00143035
0.00299771
0.00318071
0.00329727
0.00339662
0.00350107
0.00360306
0.0036945
0.00377264
0.00383823
0.00388416
0.00390925
0.0037896
0.00290602
0.00325435
0.00340816
0.00351124
0.00361228
0.00370314
0.00377888
0.0038329
0.00386163
0.00386516
0.00383181
0.00368638
0.00243282
0.00314193
0.0033933
0.00351611
0.00362075
0.00370597
0.00377447
0.00381148
0.00382097
0.00381004
0.00375239
0.00360608
0.00146336
0.00279804
0.00326634
0.00344786
0.00356108
0.00364625
0.00371295
0.00374198
0.00374472
0.00372917
0.00366778
0.00353415
0.00333
0.00320085
0.0030577
0.00289754
0.00272287
0.00253935
0.00233609
0.00210265
0.00181889
0.00144575
0.000885385
0.000273551
0.003264
0.00315552
0.00302516
0.0028646
0.00267941
0.00247371
0.00223419
0.00195188
0.00161269
0.00119232
0.000605243
0.00014241
0.00318116
0.00309401
0.00298155
0.00282685
0.00264069
0.00242475
0.00216648
0.00186132
0.00150811
0.001119
0.000617
0.000124406
0.00308019
0.00301197
0.00292
0.00277759
0.00259939
0.00238518
0.00212513
0.0018205
0.00148395
0.00114965
0.000714261
0.000127116
0.00295717
0.00290621
0.0028336
0.00270889
0.00254554
0.00234254
0.00209314
0.00180322
0.00149107
0.00117176
0.000768187
0.000131596
0.00280579
0.00277074
0.00271524
0.00261115
0.00246728
0.00228161
0.0020495
0.00177814
0.00148176
0.00115351
0.000769756
0.000135038
0.00261441
0.00259432
0.00255436
0.00247129
0.00234984
0.00218451
0.00197208
0.00171797
0.00142972
0.00109467
0.000727856
0.000135818
0.00236389
0.00235806
0.00233229
0.002269
0.00217141
0.00202836
0.00183729
0.00159956
0.00131926
0.000994355
0.000645944
0.000134036
0.00202258
0.00202897
0.00201685
0.00197153
0.00189522
0.00177811
0.00161712
0.00139806
0.00113353
0.000837523
0.000525497
0.000128629
0.00153862
0.00155301
0.0015524
0.00152328
0.00146659
0.00138083
0.00126594
0.00108064
0.00085672
0.000616049
0.000365
0.000118493
0.000844401
0.000857714
0.000862898
0.00084979
0.000819685
0.000773319
0.00071465
0.00061254
0.000464513
0.000322097
0.000170914
0.000101785
9.16596e-05
9.41775e-05
9.63169e-05
9.72616e-05
9.68128e-05
9.49461e-05
9.16204e-05
8.64385e-05
7.86629e-05
6.72609e-05
5.23184e-05
3.2512e-05
0.000367588
0.00230582
0.00306656
0.00332602
0.00345294
0.00354287
0.0036122
0.00364082
0.00364269
0.00362723
0.00357196
0.00345975
0.000322871
0.00205282
0.00285554
0.00316675
0.00330893
0.00340667
0.00348153
0.00351561
0.00352276
0.00350822
0.00346254
0.00337353
0.000299309
0.0018483
0.00264043
0.00297869
0.00313728
0.00324402
0.00332568
0.00336887
0.00338576
0.00337596
0.00333898
0.0032686
0.00028092
0.0016608
0.00241998
0.00277047
0.00294311
0.00305827
0.00314635
0.00320029
0.00322712
0.0032274
0.00320046
0.0031477
0.000264422
0.00147823
0.00219307
0.00254594
0.00272853
0.00285018
0.00294345
0.00300773
0.00304396
0.00305527
0.00304266
0.00300742
0.00024824
0.00129189
0.00195607
0.0023053
0.00249255
0.00261754
0.00271432
0.00278674
0.00283247
0.00285515
0.00285677
0.00283895
0.000232168
0.0010858
0.00170426
0.00204584
0.00223051
0.00235413
0.00245193
0.00252994
0.00258433
0.00261767
0.00263229
0.00263039
0.000216237
0.000862677
0.00143239
0.00176232
0.00193284
0.00204815
0.00214303
0.00222332
0.00228435
0.00232656
0.00235211
0.00236386
0.000199156
0.000646572
0.00114116
0.00144252
0.00158245
0.00167985
0.00176566
0.00184338
0.001907
0.00195458
0.00198761
0.00200962
0.000179296
0.000452037
0.000828288
0.00105538
0.00114093
0.00120833
0.00127734
0.00134717
0.00140958
0.00145874
0.00149273
0.00151872
0.000155915
0.000276172
0.000466041
0.000556672
0.000584867
0.000617677
0.00065796
0.000704568
0.000749966
0.000786788
0.000809797
0.000828523
4.10295e-05
4.51193e-05
5.39598e-05
6.14663e-05
6.63937e-05
7.01507e-05
7.35302e-05
7.70006e-05
8.04908e-05
8.36323e-05
8.64528e-05
8.90925e-05
0.0033305
0.00320133
0.00305819
0.002898
0.00272327
0.00253969
0.00233638
0.00210289
0.00181908
0.00144589
0.000885476
0.000273575
0.00326457
0.00315601
0.00302566
0.00286508
0.00267983
0.00247408
0.00223451
0.00195214
0.0016129
0.00119248
0.000605359
0.000142434
0.00318175
0.00309451
0.00298205
0.00282734
0.00264114
0.00242515
0.00216683
0.00186162
0.00150835
0.00111921
0.00061716
0.000124434
0.0030808
0.00301248
0.0029205
0.00277809
0.00259986
0.00238561
0.00212552
0.00182084
0.00148424
0.00114991
0.000714445
0.000127145
0.0029578
0.00290672
0.00283411
0.0027094
0.00254603
0.00234299
0.00209355
0.00180359
0.0014914
0.00117205
0.000768391
0.000131625
0.00280642
0.00277126
0.00271573
0.00261166
0.00246778
0.00228208
0.00204994
0.00177853
0.0014821
0.0011538
0.000769966
0.000135068
0.00261499
0.00259481
0.00255484
0.00247177
0.00235032
0.00218497
0.00197252
0.00171836
0.00143006
0.00109495
0.000728064
0.000135848
0.00236441
0.00235852
0.00233274
0.00226944
0.00217186
0.00202879
0.0018377
0.00159993
0.00131958
0.000994614
0.000646132
0.000134065
0.00202302
0.00202935
0.00201723
0.00197191
0.0018956
0.00177848
0.00161748
0.00139838
0.00113381
0.000837745
0.00052565
0.000128657
0.00153893
0.00155328
0.00155267
0.00152356
0.00146687
0.00138111
0.00126621
0.00108089
0.000856932
0.000616215
0.00036511
0.000118519
0.000844598
0.000857843
0.000863041
0.00084994
0.000819837
0.000773468
0.000714791
0.000612677
0.000464634
0.000322186
0.000170968
0.000101806
9.16737e-05
9.41912e-05
9.63305e-05
9.72758e-05
9.68273e-05
9.49608e-05
9.16349e-05
8.64524e-05
7.86764e-05
6.72728e-05
5.23281e-05
3.25179e-05
0.000367633
0.00230631
0.00306737
0.00332695
0.00345391
0.00354381
0.00361309
0.00364163
0.00364341
0.00362789
0.00357254
0.00346024
0.000322916
0.0020533
0.00285635
0.0031677
0.00330992
0.00340764
0.00348244
0.00351643
0.00352349
0.00350889
0.00346313
0.00337402
0.000299354
0.00184878
0.00264123
0.00297965
0.00313828
0.00324501
0.00332661
0.00336971
0.0033865
0.00337664
0.00333958
0.00326909
0.000280966
0.00166126
0.00242076
0.00277141
0.0029441
0.00305926
0.00314729
0.00320113
0.00322788
0.00322806
0.00320105
0.00314818
0.000264467
0.00147868
0.00219381
0.00254685
0.0027295
0.00285115
0.00294438
0.00300857
0.00304471
0.00305593
0.00304323
0.00300789
0.000248284
0.00129231
0.00195677
0.00230615
0.00249347
0.00261846
0.00271521
0.00278756
0.0028332
0.0028558
0.00285732
0.0028394
0.00023221
0.00108619
0.0017049
0.00204662
0.00223134
0.00235497
0.00245275
0.0025307
0.00258502
0.00261827
0.00263281
0.00263082
0.000216277
0.000863022
0.00143297
0.001763
0.00193357
0.00204888
0.00214375
0.002224
0.00228496
0.0023271
0.00235258
0.00236425
0.000199194
0.000646859
0.00114165
0.00144308
0.00158303
0.00168043
0.00176622
0.00184392
0.0019075
0.00195502
0.00198799
0.00200994
0.00017933
0.000452253
0.000828679
0.00105577
0.00114132
0.00120872
0.00127773
0.00134754
0.00140992
0.00145905
0.001493
0.00151895
0.000155945
0.000276292
0.000466265
0.000556861
0.000585055
0.000617862
0.000658143
0.000704748
0.000750133
0.000786939
0.000809929
0.000828638
4.10357e-05
4.51292e-05
5.39775e-05
6.14854e-05
6.64129e-05
7.01692e-05
7.35479e-05
7.70175e-05
8.05061e-05
8.36459e-05
8.64648e-05
8.9103e-05
0.0033309
0.00320166
0.00305847
0.00289824
0.00272348
0.00253986
0.00233651
0.00210298
0.00181912
0.00144592
0.000885512
0.000273593
0.00326496
0.00315633
0.00302592
0.0028653
0.00268002
0.00247423
0.00223462
0.00195221
0.00161292
0.00119249
0.000605359
0.000142439
0.00318214
0.00309482
0.0029823
0.00282755
0.0026413
0.00242528
0.00216692
0.00186167
0.00150837
0.0011192
0.000617143
0.000124435
0.0030812
0.00301279
0.00292075
0.00277829
0.00260001
0.00238572
0.00212559
0.00182088
0.00148424
0.00114989
0.000714438
0.000127146
0.00295818
0.00290702
0.00283434
0.00270959
0.00254617
0.0023431
0.00209362
0.00180362
0.0014914
0.00117205
0.000768396
0.000131627
0.00280679
0.00277155
0.00271596
0.00261183
0.00246791
0.00228217
0.00205
0.00177856
0.00148211
0.00115384
0.000769979
0.00013507
0.00261534
0.00259509
0.00255505
0.00247194
0.00235044
0.00218506
0.00197257
0.00171839
0.00143008
0.00109501
0.000728081
0.00013585
0.00236472
0.00235876
0.00233293
0.0022696
0.00217198
0.00202888
0.00183776
0.00159997
0.00131961
0.000994663
0.000646146
0.000134067
0.00202328
0.00202956
0.0020174
0.00197204
0.00189571
0.00177857
0.00161754
0.00139843
0.00113384
0.000837775
0.000525658
0.000128659
0.00153912
0.00155343
0.00155279
0.00152366
0.00146696
0.00138118
0.00126627
0.00108094
0.00085696
0.000616233
0.000365116
0.00011852
0.000844695
0.000857925
0.000863106