/*--------------------------------*- C++ -*----------------------------------*\
| =========                 |                                                 |
| \\      /  F ield         | OpenFOAM: The Open Source CFD Toolbox           |
|  \\    /   O peration     | Version:  4.0                                   |
|   \\  /    A nd           | Web:      www.OpenFOAM.org                      |
|    \\/     M anipulation  |                                                 |
\*---------------------------------------------------------------------------*/
FoamFile
{
    version     2.0;
    format      ascii;
    class       volScalarField;
    location    "400";
    object      p;
}
// * * * * * * * * * * * * * * * * * * * * * * * * * * * * * * * * * * * * * //

dimensions      [0 2 -2 0 0 0 0];

internalField   nonuniform List<scalar> 
3072
(
-0.000153318
-0.113825
-0.216757
-0.286628
-0.318649
-0.298944
-0.262213
-0.18591
-0.0396978
0.105372
-0.0102378
-0.268564
0.671343
0.479499
0.352931
0.28562
0.283698
0.391313
0.637153
0.882693
1.51297
2.0978
2.332
2.49168
1.3696
1.08707
0.965629
0.960898
1.08045
1.35388
1.80734
2.22934
2.63053
2.97045
3.18612
3.35809
2.27002
2.01009
1.95732
2.06207
2.36729
2.80526
3.26162
3.67026
4.02704
4.3123
4.528
4.70156
3.28422
3.13479
3.18237
3.41577
3.80749
4.25194
4.67117
5.0377
5.35473
5.60089
5.78877
5.93352
4.34894
4.31407
4.46806
4.78954
5.20668
5.6253
5.99965
6.31615
6.57734
6.78124
6.93837
7.05828
5.40841
5.50353
5.74505
6.11755
6.53281
6.9184
7.24493
7.51029
7.72167
7.88462
8.00894
8.10254
6.46315
6.70797
7.01152
7.40504
7.79625
8.13455
8.40724
8.62007
8.78318
8.90547
8.99677
9.06439
7.52961
7.94255
8.28178
8.66607
9.00933
9.28529
9.4952
9.6503
9.76314
9.84419
9.90282
9.9454
8.63479
9.17814
9.5373
9.89059
10.17
10.3683
10.5049
10.5966
10.657
10.6969
10.7245
10.7441
9.78498
10.4828
10.8006
11.0438
11.2313
11.3392
11.3981
11.4278
11.4406
11.4455
11.449
11.4517
10.8101
11.8058
11.9915
12.0434
12.1096
12.1278
12.1203
12.103
12.0845
12.07
12.0633
12.0606
-0.494766
-0.599898
-0.555526
-0.366518
-0.0526287
0.366645
0.863262
1.37784
1.83761
2.19022
2.34403
2.21456
2.57929
2.63801
2.67974
2.73648
2.81623
2.9258
3.04561
3.1661
3.26325
3.41284
3.36476
2.70469
3.46275
3.54468
3.61937
3.70612
3.80129
3.89312
3.97461
4.01787
3.99209
3.96754
3.82325
2.86152
4.82776
4.92642
5.00332
5.06221
5.10035
5.11515
5.10094
5.02554
4.86726
4.6723
4.39743
3.16337
6.03822
6.11374
6.16528
6.19552
6.203
6.18318
6.12511
6.01376
5.81925
5.54014
5.20782
3.77279
7.14577
7.20735
7.24642
7.26437
7.25999
7.2293
7.16205
7.0448
6.8536
6.56431
6.21757
4.78992
8.17054
8.21768
8.24682
8.25926
8.2546
8.23025
8.1799
8.09258
7.94934
7.72497
7.44883
6.16522
9.1134
9.14765
9.17008
9.18257
9.18598
9.17993
9.16168
9.12582
9.06422
8.95739
8.84094
7.89294
9.9765
9.99896
10.0161
10.0306
10.0454
10.0627
10.0836
10.1099
10.1479
10.1974
10.3261
9.90405
10.7593
10.7713
10.7834
10.7991
10.824
10.8637
10.9224
11.0095
11.1444
11.3567
11.8379
12.1325
11.4563
11.4607
11.4692
11.4849
11.5149
11.5696
11.656
11.7899
11.9971
12.3441
13.2177
14.3868
12.0636
12.0651
12.0724
12.0874
12.1169
12.1743
12.2691
12.4212
12.649
13.0407
14.0145
15.8664
-2.22843e-05
-0.113788
-0.216839
-0.286753
-0.318817
-0.299128
-0.262396
-0.186132
-0.0399997
0.105258
-0.0101642
-0.26844
0.671364
0.479389
0.352747
0.28538
0.283423
0.390991
0.636834
0.882267
1.51238
2.09756
2.33192
2.49165
1.36967
1.08697
0.96543
0.960628
1.08012
1.35346
1.80695
2.22902
2.63023
2.97028
3.18599
3.35801
2.27015
2.01004
1.95715
2.06179
2.36692
2.80489
3.26132
3.67002
4.02685
4.31219
4.52792
4.70152
3.28441
3.13483
3.18228
3.41555
3.80724
4.25172
4.67101
5.03757
5.35465
5.60086
5.78876
5.93353
4.34917
4.31418
4.46807
4.78946
5.20659
5.62524
5.99961
6.31615
6.57734
6.78127
6.93841
7.05833
5.40864
5.50368
5.74512
6.11759
6.53285
6.91844
7.24499
7.51035
7.72174
7.88469
8.00901
8.10261
6.46338
6.70813
7.01165
7.40515
7.79636
8.13466
8.40735
8.62018
8.78328
8.90558
8.99687
9.06448
7.52982
7.94274
8.28193
8.66622
9.00947
9.28543
9.49534
9.65043
9.76327
9.84431
9.90293
9.9455
8.63498
9.17832
9.53747
9.89075
10.1701
10.3685
10.505
10.5967
10.6572
10.697
10.7246
10.7442
9.78514
10.483
10.8007
11.044
11.2314
11.3393
11.3982
11.428
11.4407
11.4456
11.4491
11.4518
10.8102
11.8059
11.9917
12.0435
12.1097
12.1279
12.1204
12.1031
12.0846
12.0701
12.0634
12.0606
-0.49461
-0.599832
-0.555466
-0.366506
-0.0526071
0.366652
0.863296
1.37788
1.8377
2.19034
2.34416
2.21467
2.57926
2.63803
2.67975
2.73651
2.81624
2.92583
3.04565
3.16616
3.26332
3.41295
3.36487
2.70477
3.46271
3.54468
3.61937
3.70613
3.80131
3.89315
3.97465
4.01792
3.99215
3.96761
3.82332
2.86156
4.82774
4.92643
5.00333
5.06224
5.10038
5.11518
5.10098
5.02558
4.86731
4.67236
4.39748
3.16338
6.03825
6.11378
6.16532
6.19556
6.20305
6.18323
6.12516
6.01381
5.8193
5.54018
5.20787
3.77279
7.14582
7.20741
7.24647
7.26443
7.26005
7.22936
7.16211
7.04486
6.85365
6.56436
6.21762
4.78993
8.17062
8.21776
8.24689
8.25934
8.25466
8.23032
8.17996
8.09265
7.9494
7.72503
7.44889
6.16526
9.11349
9.14773
9.17017
9.18265
9.18606
9.18001
9.16176
9.1259
9.0643
8.95748
8.84103
7.89303
9.9766
9.99905
10.0161
10.0306
10.0455
10.0628
10.0836
10.1099
10.148
10.1975
10.3262
9.90421
10.7594
10.7714
10.7835
10.7992
10.8241
10.8638
10.9225
11.0096
11.1446
11.3569
11.8381
12.1328
11.4564
11.4607
11.4693
11.4849
11.515
11.5697
11.6561
11.79
11.9972
12.3443
13.218
14.3872
12.0637
12.0651
12.0725
12.0874
12.117
12.1743
12.2692
12.4213
12.6491
13.0409
14.0147
15.8668
7.18157e-05
-0.113686
-0.216692
-0.286569
-0.318565
-0.298809
-0.262089
-0.185728
-0.0393609
0.105383
-0.0105253
-0.268805
0.671509
0.479595
0.353042
0.285759
0.283898
0.391736
0.637635
0.883437
1.51408
2.09827
2.33221
2.49185
1.3699
1.08738
0.966043
0.961424
1.08109
1.3548
1.80827
2.23017
2.63134
2.97101
3.18661
3.35852
2.27053
2.01079
1.95823
2.06316
2.36861
2.80652
3.2627
3.67116
4.0278
4.31289
4.52852
4.70202
3.28487
3.1357
3.18355
3.41719
3.80889
4.25313
4.67213
5.0385
5.35539
5.60144
5.78924
5.93395
4.34954
4.31497
4.46922
4.7908
5.20783
5.62623
6.0004
6.31677
6.57787
6.7817
6.93879
7.05867
5.40885
5.50433
5.74602
6.11855
6.53367
6.91909
7.24548
7.51076
7.72208
7.885
8.0093
8.10289
6.46341
6.70861
7.01228
7.40579
7.79688
8.13505
8.40765
8.62043
8.78351
8.90579
8.99708
9.0647
7.52979
7.94307
8.28237
8.66663
9.00979
9.28566
9.49551
9.65058
9.76341
9.84445
9.90309
9.94568
8.63496
9.17857
9.53776
9.891
10.1703
10.3686
10.5051
10.5968
10.6572
10.6971
10.7247
10.7443
9.78515
10.4832
10.8009
11.0441
11.2315
11.3394
11.3982
11.428
11.4408
11.4457
11.4492
11.4519
10.8102
11.8061
11.9918
12.0436
12.1098
12.1279
12.1204
12.1032
12.0846
12.0702
12.0635
12.0607
-0.494934
-0.599789
-0.555303
-0.366141
-0.0522024
0.367131
0.863732
1.37829
1.83801
2.19057
2.34434
2.21488
2.57952
2.63823
2.68003
2.73683
2.81663
2.92621
3.04603
3.1665
3.26363
3.41318
3.36507
2.70503
3.46312
3.54505
3.61976
3.70652
3.80171
3.89354
3.97503
4.01829
3.9925
3.96792
3.82359
2.86194
4.82818
4.92683
5.00372
5.06262
5.10076
5.11557
5.10136
5.02596
4.86769
4.67274
4.39784
3.16386
6.03862
6.11414
6.16567
6.19591
6.2034
6.18359
6.12553
6.01419
5.8197
5.5406
5.20828
3.77334
7.14615
7.20772
7.24679
7.26475
7.26038
7.2297
7.16246
7.04523
6.85404
6.5648
6.21807
4.79052
8.17089
8.21803
8.24716
8.25962
8.25496
8.23063
8.18029
8.093
7.94978
7.72546
7.44935
6.16585
9.11371
9.14796
9.17041
9.1829
9.18633
9.18029
9.16206
9.12622
9.06465
8.95787
8.84148
7.8936
9.97678
9.99925
10.0164
10.0309
10.0457
10.0631
10.0839
10.1102
10.1483
10.1978
10.3266
9.90471
10.7596
10.7715
10.7837
10.7994
10.8243
10.8641
10.9227
11.0098
11.1448
11.3571
11.8385
12.1331
11.4565
11.4609
11.4695
11.4851
11.5152
11.5699
11.6563
11.7902
11.9974
12.3445
13.2182
14.3874
12.0638
12.0653
12.0726
12.0876
12.1172
12.1745
12.2693
12.4215
12.6492
13.041
14.0148
15.8668
-0.000114861
-0.113886
-0.216939
-0.28685
-0.318902
-0.299204
-0.262478
-0.186187
-0.0399835
0.105165
-0.0104157
-0.268749
0.671271
0.479292
0.352657
0.285304
0.283371
0.39099
0.636842
0.882388
1.51266
2.09764
2.33189
2.49159
1.36958
1.08688
0.965367
0.960591
1.08013
1.35355
1.80705
2.22911
2.63033
2.97031
3.186
3.35799
2.27008
2.00998
1.95712
2.0618
2.36699
2.805
3.26142
3.67011
4.02693
4.31223
4.52795
4.70152
3.28435
3.13479
3.18226
3.41559
3.80732
4.25182
4.6711
5.03765
5.35472
5.6009
5.78879
5.93354
4.34911
4.31414
4.46806
4.78949
5.20666
5.62533
5.99969
6.31622
6.57741
6.78132
6.93844
7.05836
5.40858
5.50364
5.74511
6.11762
6.53292
6.91852
7.24507
7.51043
7.72181
7.88475
8.00906
8.10265
6.46333
6.7081
7.01165
7.40519
7.79643
8.13474
8.40743
8.62026
8.78335
8.90563
8.99691
9.06452
7.52977
7.94271
8.28194
8.66627
9.00954
9.28551
9.49541
9.6505
9.76333
9.84436
9.90298
9.94554
8.63494
9.1783
9.53748
9.89079
10.1702
10.3685
10.5051
10.5968
10.6572
10.697
10.7246
10.7442
9.78511
10.483
10.8007
11.044
11.2315
11.3394
11.3983
11.428
11.4408
11.4457
11.4491
11.4518
10.8102
11.8059
11.9917
12.0436
12.1098
12.1279
12.1205
12.1032
12.0846
12.0702
12.0635
12.0607
-0.49495
-0.600104
-0.555713
-0.366692
-0.0527577
0.366557
0.863234
1.37786
1.83769
2.19036
2.3442
2.21469
2.5792
2.63794
2.67967
2.73643
2.81619
2.92579
3.04563
3.16615
3.26333
3.41298
3.36489
2.70478
3.46266
3.54462
3.61932
3.70608
3.80127
3.89313
3.97463
4.01791
3.99215
3.96761
3.82331
2.86155
4.82773
4.92641
5.00331
5.06221
5.10036
5.11517
5.10097
5.02557
4.8673
4.67235
4.39746
3.16335
6.03825
6.11377
6.16531
6.19555
6.20303
6.18321
6.12514
6.0138
5.81929
5.54017
5.20785
3.77278
7.14583
7.20742
7.24647
7.26443
7.26004
7.22935
7.1621
7.04485
6.85364
6.56435
6.21761
4.78993
8.17064
8.21777
8.24689
8.25934
8.25466
8.23031
8.17995
8.09264
7.94939
7.72503
7.44889
6.16528
9.11351
9.14775
9.17017
9.18265
9.18606
9.18
9.16175
9.12589
9.0643
8.95748
8.84104
7.89308
9.97662
9.99906
10.0161
10.0306
10.0455
10.0628
10.0836
10.1099
10.148
10.1975
10.3263
9.90427
10.7594
10.7714
10.7835
10.7992
10.8241
10.8638
10.9225
11.0096
11.1446
11.3569
11.8382
12.1328
11.4564
11.4607
11.4693
11.4849
11.5149
11.5697
11.6561
11.7899
11.9972
12.3443
13.218
14.3872
12.0637
12.0651
12.0724
12.0874
12.117
12.1743
12.2691
12.4213
12.649
13.0408
14.0146
15.8667
12.8481
13.0083
12.8968
12.7811
12.7276
12.6815
12.6365
12.5982
12.5723
12.5599
12.5618
12.5686
13.2342
13.0966
13.0854
13.0384
13.0086
12.9756
12.9417
12.9174
12.9115
12.9236
12.9536
12.9861
13.4066
13.3117
13.2767
13.2182
13.174
13.1385
13.1155
13.1142
13.1402
13.1918
13.2661
13.3402
13.5366
13.4527
13.3826
13.3052
13.2414
13.198
13.1846
13.2115
13.2844
13.4002
13.5495
13.7027
12.5825
12.5867
12.596
12.6094
12.6335
12.6815
12.7645
12.9031
13.0906
13.365
13.6868
14.6149
13.0244
13.035
13.0489
13.0576
13.0695
13.0968
13.1523
13.2572
13.3918
13.5877
13.6671
13.9519
13.4134
13.4269
13.4461
13.4432
13.4339
13.4295
13.4421
13.4946
13.5649
13.698
13.7075
13.7944
13.826
13.8229
13.842
13.8139
13.7669
13.7098
13.6538
13.6235
13.6072
13.6656
13.6465
13.7146
12.8482
13.0085
12.8968
12.7812
12.7277
12.6815
12.6366
12.5982
12.5724
12.5599
12.5618
12.5686
13.2343
13.0966
13.0855
13.0385
13.0087
12.9756
12.9417
12.9174
12.9115
12.9236
12.9536
12.9862
13.4066
13.3117
13.2768
13.2183
13.1741
13.1385
13.1156
13.1142
13.1402
13.1918
13.2661
13.3402
13.5367
13.4528
13.3827
13.3052
13.2414
13.1981
13.1846
13.2115
13.2844
13.4002
13.5495
13.7027
12.5825
12.5867
12.596
12.6094
12.6336
12.6815
12.7645
12.9032
13.0907
13.3651
13.6869
14.6152
13.0244
13.0351
13.0489
13.0576
13.0695
13.0969
13.1523
13.2573
13.3919
13.5878
13.6672
13.952
13.4134
13.427
13.4461
13.4433
13.4339
13.4295
13.4422
13.4947
13.565
13.6981
13.7077
13.7945
13.826
13.8229
13.842
13.8139
13.7669
13.7099
13.6539
13.6236
13.6073
13.6657
13.6466
13.7147
12.8483
13.0087
12.897
12.7812
12.7277
12.6815
12.6366
12.5982
12.5724
12.56
12.5619
12.5687
13.2344
13.0968
13.0856
13.0386
13.0087
12.9756
12.9417
12.9175
12.9115
12.9236
12.9537
12.9862
13.4068
13.3118
13.2769
13.2184
13.1741
13.1385
13.1156
13.1142
13.1402
13.1918
13.2662
13.3403
13.5368
13.4529
13.3828
13.3053
13.2415
13.1981
13.1846
13.2115
13.2844
13.4002
13.5495
13.7028
12.5826
12.5868
12.5961
12.6096
12.6337
12.6817
12.7647
12.9033
13.0908
13.3652
13.687
14.6152
13.0245
13.0352
13.0491
13.0578
13.0696
13.0971
13.1525
13.2574
13.392
13.5878
13.6673
13.9521
13.4135
13.4271
13.4462
13.4434
13.4341
13.4297
13.4423
13.4948
13.5652
13.6982
13.7077
13.7946
13.8261
13.823
13.8421
13.814
13.767
13.71
13.654
13.6237
13.6075
13.6658
13.6467
13.7148
12.8483
13.0086
12.897
12.7813
12.7278
12.6817
12.6367
12.5984
12.5725
12.5601
12.5619
12.5687
13.2345
13.0968
13.0857
13.0387
13.0089
12.9759
12.9419
12.9177
12.9117
12.9238
12.9537
12.9862
13.4069
13.312
13.2771
13.2186
13.1744
13.1388
13.1159
13.1145
13.1405
13.1921
13.2663
13.3403
13.5369
13.4531
13.383
13.3056
13.2418
13.1985
13.185
13.2119
13.2848
13.4005
13.5497
13.7028
12.5825
12.5867
12.596
12.6094
12.6335
12.6815
12.7645
12.9031
13.0906
13.3651
13.6868
14.615
13.0245
13.0351
13.0489
13.0576
13.0694
13.0968
13.1522
13.2572
13.3918
13.5877
13.6671
13.9519
13.4135
13.427
13.4461
13.4432
13.4339
13.4294
13.442
13.4946
13.5649
13.6979
13.7075
13.7943
13.826
13.8229
13.8419
13.8138
13.7668
13.7097
13.6537
13.6234
13.6071
13.6655
13.6464
13.7145
13.6534
13.5901
13.516
13.4399
13.3717
13.3214
13.3
13.3185
13.3829
13.492
13.6361
13.801
13.7667
13.7104
13.6465
13.5826
13.5233
13.4753
13.4472
13.4482
13.484
13.5549
13.6551
13.7779
13.854
13.802
13.7445
13.6867
13.6301
13.5797
13.5432
13.5294
13.5461
13.5964
13.6785
13.7876
13.919
13.8696
13.815
13.7585
13.6997
13.6429
13.5955
13.5674
13.57
13.6109
13.6901
13.7511
13.9891
14.0067
14.0391
14.0149
13.9707
13.9088
13.8404
13.7813
13.7304
13.7302
13.6886
13.7242
14.007
14.0209
14.0667
14.0603
14.0409
14.0072
13.9693
13.9354
13.9027
13.8912
13.8483
13.8372
14.0887
14.062
14.1103
14.1124
14.1045
14.0844
14.0602
14.036
14.009
13.9894
13.947
13.9182
14.2828
14.1417
14.1632
14.1637
14.1587
14.1446
14.1263
14.1053
14.0794
14.054
14.0116
13.9758
13.6535
13.5902
13.5161
13.4399
13.3717
13.3214
13.3
13.3185
13.3829
13.492
13.6361
13.801
13.7668
13.7105
13.6466
13.5826
13.5233
13.4753
13.4472
13.4481
13.484
13.5549
13.6551
13.7779
13.8541
13.8021
13.7446
13.6868
13.6301
13.5797
13.5432
13.5294
13.5461
13.5964
13.6784
13.7876
13.9191
13.8697
13.8151
13.7586
13.6997
13.6429
13.5955
13.5674
13.57
13.6108
13.69
13.7511
13.9891
14.0067
14.0392
14.015
13.9707
13.9088
13.8404
13.7814
13.7305
13.7303
13.6887
13.7243
14.007
14.021
14.0668
14.0604
14.0409
14.0073
13.9693
13.9355
13.9028
13.8913
13.8484
13.8373
14.0888
14.062
14.1103
14.1124
14.1046
14.0845
14.0603
14.036
14.0091
13.9895
13.9472
13.9183
14.2829
14.1418
14.1633
14.1638
14.1588
14.1447
14.1264
14.1054
14.0795
14.0541
14.0117
13.9759
13.6536
13.5903
13.5162
13.44
13.3718
13.3214
13.3
13.3185
13.3829
13.492
13.6361
13.801
13.7669
13.7106
13.6467
13.5827
13.5234
13.4754
13.4473
13.4482
13.484
13.5549
13.6551
13.778
13.8542
13.8022
13.7447
13.6868
13.6302
13.5798
13.5432
13.5294
13.5461
13.5964
13.6785
13.7877
13.9192
13.8698
13.8152
13.7586
13.6998
13.643
13.5956
13.5674
13.57
13.6109
13.6901
13.7512
13.9893
14.0068
14.0393
14.0151
13.9708
13.9089
13.8405
13.7815
13.7306
13.7305
13.6889
13.7245
14.0071
14.0211
14.0669
14.0605
14.0411
14.0074
13.9695
13.9356
13.903
13.8915
13.8486
13.8375
14.0889
14.0622
14.1105
14.1126
14.1047
14.0847
14.0604
14.0362
14.0093
13.9897
13.9473
13.9184
14.2832
14.142
14.1635
14.164
14.159
14.1449
14.1266
14.1056
14.0797
14.0543
14.0119
13.9761
13.6538
13.5905
13.5164
13.4403
13.3721
13.3218
13.3005
13.3189
13.3833
13.4923
13.6363
13.8011
13.7671
13.7108
13.6469
13.583
13.5237
13.4757
13.4476
13.4485
13.4843
13.5552
13.6553
13.7781
13.8544
13.8024
13.7449
13.6871
13.6304
13.5801
13.5436
13.5298
13.5464
13.5967
13.6787
13.7878
13.9194
13.87
13.8154
13.7589
13.7
13.6432
13.5958
13.5677
13.5703
13.6111
13.6903
13.7513
13.9892
14.0067
14.0391
14.0149
13.9706
13.9087
13.8403
13.7812
13.7303
13.7301
13.6886
13.7241
14.0071
14.021
14.0667
14.0603
14.0408
14.0072
13.9692
13.9353
13.9026
13.8911
13.8483
13.8371
14.0888
14.0621
14.1103
14.1124
14.1045
14.0844
14.0602
14.0359
14.009
13.9894
13.947
13.9181
14.2829
14.1418
14.1632
14.1637
14.1587
14.1446
14.1263
14.1052
14.0794
14.0539
14.0116
13.9757
13.9657
13.9167
13.862
13.8032
13.7388
13.6727
13.6119
13.5672
13.5504
13.5632
13.605
13.5105
13.9973
13.9469
13.8897
13.8261
13.7541
13.6773
13.6027
13.5418
13.507
13.4974
13.5372
13.5242
14.0171
13.9642
13.9032
13.8335
13.7537
13.667
13.581
13.509
13.4664
13.4571
13.4941
13.5158
14.0282
13.9726
13.9074
13.8319
13.7452
13.6508
13.5577
13.4813
13.4395
13.4375
13.4759
13.5139
14.0336
13.9754
13.9064
13.8261
13.7344
13.6354
13.5393
13.4638
13.4265
13.432
13.4759
13.5228
14.0355
13.9752
13.9035
13.8198
13.725
13.624
13.5282
13.4564
13.4251
13.438
13.4896
13.5404
14.036
13.9743
13.901
13.8153
13.7191
13.618
13.5242
13.4574
13.4321
13.4516
13.5101
13.5633
14.0366
13.9742
13.9003
13.8139
13.7176
13.6175
13.5264
13.4645
13.4441
13.4696
13.5339
13.5877
14.0386
13.9764
13.9029
13.8169
13.7215
13.6225
13.5337
13.4756
13.4583
13.4882
13.5561
13.6105
14.044
13.9833
13.9114
13.8267
13.7325
13.6342
13.5457
13.4893
13.4712
13.5029
13.5728
13.629
14.0545
13.9973
13.9286
13.8463
13.7532
13.6544
13.5636
13.5053
13.4819
13.5128
13.5855
13.6393
14.0647
14.0115
13.9469
13.8685
13.7784
13.6806
13.5906
13.5207
13.4954
13.524
13.5935
13.6416
14.6396
14.3068
14.2215
14.209
14.2014
14.1895
14.1739
14.154
14.1283
14.0995
14.0575
14.0182
14.6168
14.3756
14.2631
14.2424
14.2336
14.2224
14.2078
14.1878
14.1618
14.1308
14.0893
14.0479
14.5562
14.3705
14.2888
14.2651
14.257
14.2462
14.2315
14.2109
14.1839
14.1514
14.1103
14.0674
14.4942
14.3509
14.3036
14.2807
14.2738
14.2632
14.2481
14.2264
14.1982
14.1643
14.1231
14.0792
14.4444
14.3357
14.3123
14.292
14.2858
14.2754
14.2594
14.2365
14.207
14.1719
14.1305
14.0854
14.4126
14.3279
14.3183
14.3008
14.2948
14.284
14.2671
14.2429
14.2121
14.176
14.1343
14.0883
14.3991
14.3288
14.3239
14.3084
14.3019
14.2901
14.272
14.2467
14.2148
14.178
14.1361
14.0895
14.3994
14.3394
14.3303
14.3154
14.3072
14.294
14.275
14.2487
14.2161
14.1788
14.1371
14.0904
14.409
14.3577
14.3378
14.3217
14.3104
14.2958
14.276
14.2492
14.2163
14.1792
14.1382
14.092
14.4228
14.3798
14.3467
14.3259
14.3101
14.2939
14.2743
14.248
14.2158
14.1799
14.1403
14.0958
14.4398
14.399
14.3569
14.3277
14.3065
14.2886
14.2693
14.2444
14.2142
14.181
14.1443
14.1029
14.4577
14.4147
14.3642
14.3308
14.3055
14.2856
14.2654
14.2409
14.2127
14.182
14.148
14.1096
13.9658
13.9168
13.8621
13.8032
13.7388
13.6727
13.6119
13.5672
13.5504
13.5632
13.6049
13.5104
13.9973
13.9469
13.8897
13.8261
13.7541
13.6773
13.6027
13.5417
13.5069
13.4973
13.5371
13.5242
14.0171
13.9642
13.9032
13.8335
13.7537
13.6669
13.5809
13.5089
13.4663
13.457
13.494
13.5157
14.0283
13.9726
13.9074
13.8319
13.7452
13.6508
13.5576
13.4813
13.4394
13.4374
13.4758
13.5138
14.0336
13.9754
13.9064
13.8261
13.7344
13.6353
13.5392
13.4637
13.4264
13.4319
13.4758
13.5227
14.0356
13.9752
13.9036
13.8198
13.725
13.6239
13.5281
13.4564
13.4251
13.4379
13.4895
13.5403
14.036
13.9743
13.901
13.8152
13.719
13.6179
13.5241
13.4573
13.432
13.4515
13.5101
13.5632
14.0366
13.9742
13.9003
13.8139
13.7176
13.6175
13.5264
13.4644
13.4441
13.4695
13.5338
13.5876
14.0387
13.9764
13.9029
13.8169
13.7214
13.6225
13.5336
13.4756
13.4582
13.4881
13.556
13.6105
14.0441
13.9834
13.9114
13.8267
13.7324
13.6342
13.5456
13.4892
13.4712
13.5028
13.5727
13.6289
14.0546
13.9973
13.9286
13.8463
13.7532
13.6544
13.5636
13.5053
13.4818
13.5127
13.5854
13.6393
14.0648
14.0115
13.9469
13.8686
13.7784
13.6805
13.5905
13.5207
13.4953
13.5239
13.5934
13.6415
14.6397
14.3069
14.2216
14.2091
14.2015
14.1896
14.174
14.1541
14.1284
14.0996
14.0576
14.0183
14.6169
14.3758
14.2632
14.2425
14.2337
14.2225
14.2079
14.1879
14.1619
14.1309
14.0894
14.048
14.5564
14.3706
14.2889
14.2652
14.2571
14.2463
14.2316
14.211
14.184
14.1515
14.1104
14.0675
14.4944
14.351
14.3037
14.2808
14.2739
14.2633
14.2482
14.2265
14.1983
14.1644
14.1232
14.0793
14.4445
14.3358
14.3124
14.2921
14.2859
14.2755
14.2595
14.2366
14.2071
14.172
14.1306
14.0855
14.4127
14.328
14.3185
14.301
14.295
14.2842
14.2672
14.243
14.2122
14.1761
14.1344
14.0884
14.3992
14.329
14.324
14.3085
14.302
14.2902
14.2721
14.2468
14.215
14.1781
14.1362
14.0896
14.3996
14.3395
14.3304
14.3155
14.3073
14.2942
14.2751
14.2488
14.2162
14.1789
14.1372
14.0905
14.4091
14.3578
14.3379
14.3218
14.3106
14.2959
14.2762
14.2494
14.2164
14.1793
14.1383
14.0921
14.4229
14.3799
14.3468
14.326
14.3102
14.2941
14.2744
14.2481
14.2159
14.18
14.1404
14.0959
14.44
14.3991
14.357
14.3278
14.3066
14.2888
14.2695
14.2445
14.2143
14.1811
14.1444
14.103
14.4578
14.4149
14.3644
14.3309
14.3056
14.2857
14.2655
14.241
14.2128
14.1821
14.148
14.1097
13.9659
13.9169
13.8622
13.8033
13.7389
13.6728
13.612
13.5672
13.5504
13.5632
13.6049
13.5104
13.9974
13.947
13.8898
13.8262
13.7542
13.6774
13.6027
13.5418
13.507
13.4973
13.5371
13.5241
14.0172
13.9643
13.9033
13.8336
13.7538
13.667
13.581
13.509
13.4663
13.457
13.494
13.5157
14.0284
13.9727
13.9075
13.832
13.7453
13.6509
13.5577
13.4813
13.4394
13.4374
13.4758
13.5138
14.0337
13.9755
13.9065
13.8262
13.7345
13.6354
13.5393
13.4638
13.4265
13.4319
13.4758
13.5227
14.0357
13.9753
13.9036
13.8199
13.7251
13.624
13.5281
13.4564
13.4251
13.4379
13.4895
13.5403
14.0361
13.9744
13.901
13.8153
13.7191
13.618
13.5242
13.4574
13.432
13.4515
13.5101
13.5632
14.0367
13.9743
13.9003
13.814
13.7177
13.6175
13.5264
13.4645
13.4441
13.4696
13.5338
13.5876
14.0387
13.9765
13.903
13.817
13.7215
13.6226
13.5337
13.4756
13.4582
13.4881
13.5561
13.6105
14.0441
13.9834
13.9115
13.8268
13.7325
13.6342
13.5457
13.4893
13.4712
13.5029
13.5727
13.629
14.0547
13.9974
13.9287
13.8464
13.7533
13.6545
13.5636
13.5053
13.4818
13.5128
13.5854
13.6393
14.0649
14.0116
13.947
13.8687
13.7785
13.6806
13.5906
13.5207
13.4953
13.5239
13.5934
13.6415
14.6401
14.3072
14.2218
14.2093
14.2017
14.1898
14.1742
14.1543
14.1286
14.0998
14.0578
14.0184
14.6173
14.376
14.2635
14.2427
14.2339
14.2227
14.2081
14.1881
14.1621
14.1311
14.0896
14.0482
14.5567
14.3708
14.2891
14.2654
14.2573
14.2465
14.2319
14.2112
14.1842
14.1517
14.1106
14.0677
14.4947
14.3513
14.3039
14.281
14.2741
14.2635
14.2484
14.2267
14.1985
14.1646
14.1234
14.0794
14.4448
14.3361
14.3127
14.2923
14.2861
14.2757
14.2597
14.2368
14.2073
14.1722
14.1307
14.0857
14.413
14.3282
14.3187
14.3012
14.2952
14.2844
14.2674
14.2432
14.2124
14.1763
14.1345
14.0886
14.3995
14.3292
14.3243
14.3087
14.3022
14.2904
14.2723
14.247
14.2151
14.1783
14.1364
14.0898
14.3998
14.3397
14.3306
14.3157
14.3076
14.2944
14.2753
14.249
14.2164
14.1791
14.1373
14.0907
14.4094
14.3581
14.3382
14.3221
14.3108
14.2961
14.2764
14.2496
14.2166
14.1795
14.1384
14.0923
14.4232
14.3802
14.3471
14.3262
14.3104
14.2943
14.2746
14.2483
14.2161
14.1802
14.1406
14.0961
14.4403
14.3994
14.3573
14.328
14.3068
14.289
14.2697
14.2447
14.2145
14.1812
14.1445
14.1032
14.4581
14.4152
14.3646
14.3312
14.3058
14.2859
14.2657
14.2412
14.213
14.1823
14.1482
14.1098
13.9661
13.917
13.8624
13.8035
13.7391
13.673
13.6122
13.5675
13.5507
13.5635
13.6052
13.5107
13.9976
13.9472
13.89
13.8263
13.7544
13.6776
13.603
13.542
13.5073
13.4976
13.5374
13.5244
14.0174
13.9645
13.9034
13.8338
13.754
13.6672
13.5812
13.5092
13.4666
13.4573
13.4943
13.516
14.0285
13.9728
13.9076
13.8321
13.7454
13.6511
13.5579
13.4816
13.4397
13.4377
13.4761
13.5141
14.0339
13.9756
13.9067
13.8264
13.7346
13.6356
13.5395
13.464
13.4268
13.4322
13.4762
13.523
14.0358
13.9755
13.9038
13.82
13.7252
13.6242
13.5284
13.4567
13.4254
13.4382
13.4898
13.5406
14.0363
13.9745
13.9012
13.8155
13.7193
13.6182
13.5244
13.4576
13.4323
13.4519
13.5104
13.5635
14.0369
13.9744
13.9005
13.8141
13.7179
13.6177
13.5267
13.4648
13.4444
13.4699
13.5341
13.5879
14.0389
13.9766
13.9031
13.8172
13.7217
13.6228
13.5339
13.4759
13.4585
13.4884
13.5564
13.6107
14.0443
13.9836
13.9116
13.827
13.7327
13.6344
13.5459
13.4895
13.4715
13.5032
13.573
13.6292
14.0548
13.9976
13.9288
13.8465
13.7534
13.6547
13.5639
13.5056
13.4821
13.5131
13.5857
13.6396
14.065
14.0118
13.9472
13.8688
13.7786
13.6808
13.5908
13.521
13.4956
13.5242
13.5937
13.6418
14.6396
14.3069
14.2215
14.209
14.2014
14.1895
14.1739
14.154
14.1283
14.0995
14.0575
14.0181
14.6168
14.3757
14.2632
14.2424
14.2336
14.2224
14.2078
14.1878
14.1617
14.1308
14.0893
14.0479
14.5562
14.3705
14.2888
14.2651
14.257
14.2462
14.2316
14.2109
14.1839
14.1514
14.1103
14.0674
14.4943
14.3509
14.3036
14.2807
14.2738
14.2632
14.2481
14.2264
14.1982
14.1643
14.1231
14.0791
14.4444
14.3357
14.3123
14.292
14.2858
14.2754
14.2594
14.2365
14.207
14.1719
14.1305
14.0854
14.4126
14.3279
14.3184
14.3008
14.2949
14.2841
14.2671
14.2429
14.2121
14.176
14.1343
14.0883
14.3991
14.3288
14.3239
14.3084
14.3019
14.2901
14.272
14.2467
14.2148
14.178
14.1361
14.0895
14.3995
14.3394
14.3303
14.3154
14.3072
14.2941
14.275
14.2487
14.2161
14.1788
14.137
14.0904
14.409
14.3577
14.3378
14.3217
14.3104
14.2958
14.2761
14.2493
14.2163
14.1792
14.1381
14.092
14.4228
14.3798
14.3467
14.3259
14.3101
14.294
14.2743
14.248
14.2158
14.1799
14.1403
14.0958
14.4399
14.399
14.3569
14.3277
14.3065
14.2887
14.2694
14.2444
14.2142
14.1809
14.1442
14.1029
14.4577
14.4148
14.3643
14.3308
14.3055
14.2856
14.2654
14.2409
14.2127
14.182
14.1479
14.1095
)
;

boundaryField
{
    rotor
    {
        type            zeroGradient;
    }
    stator
    {
        type            zeroGradient;
    }
    front
    {
        type            empty;
    }
    back
    {
        type            empty;
    }
}


// ************************************************************************* //
