/*--------------------------------*- C++ -*----------------------------------*\
| =========                 |                                                 |
| \\      /  F ield         | OpenFOAM: The Open Source CFD Toolbox           |
|  \\    /   O peration     | Version:  4.0                                   |
|   \\  /    A nd           | Web:      www.OpenFOAM.org                      |
|    \\/     M anipulation  |                                                 |
\*---------------------------------------------------------------------------*/
FoamFile
{
    version     2.0;
    format      ascii;
    class       surfaceScalarField;
    location    "400";
    object      phi;
}
// * * * * * * * * * * * * * * * * * * * * * * * * * * * * * * * * * * * * * //

dimensions      [0 3 -1 0 0 0 0];

internalField   nonuniform List<scalar> 
5952
(
5.16664e-06
-5.15814e-06
8.75769e-06
-3.59213e-06
1.14662e-05
-2.708e-06
1.29097e-05
-1.44371e-06
1.29227e-05
-1.25279e-08
1.08652e-05
2.05982e-06
6.12093e-06
4.74438e-06
-1.32513e-06
7.44816e-06
-1.50403e-05
1.37148e-05
-2.88861e-05
1.38458e-05
-3.91136e-05
1.02272e-05
7.98632e-06
-4.71003e-05
1.56354e-06
-6.72114e-06
3.79475e-06
-5.82395e-06
3.82636e-06
-2.73903e-06
1.8308e-06
5.52099e-07
-2.71741e-06
4.53655e-06
-1.11524e-05
1.04957e-05
-2.29482e-05
1.65406e-05
-3.39426e-05
1.84428e-05
-3.87811e-05
1.85534e-05
-4.10681e-05
1.61328e-05
-4.35929e-05
1.2752e-05
1.00628e-05
-4.56695e-05
1.13721e-06
-7.85824e-06
6.41475e-07
-5.32834e-06
-1.8956e-06
-2.01714e-07
-7.5516e-06
6.2084e-06
-1.65345e-05
1.35198e-05
-2.5341e-05
1.93025e-05
-3.04211e-05
2.1621e-05
-3.31696e-05
2.11915e-05
-3.41973e-05
1.95812e-05
-3.47436e-05
1.6679e-05
-3.55882e-05
1.35966e-05
1.07396e-05
-3.62651e-05
-1.89377e-06
-5.96437e-06
-5.12282e-06
-2.09925e-06
-1.01264e-05
4.80201e-06
-1.65772e-05
1.26595e-05
-2.22557e-05
1.91985e-05
-2.5514e-05
2.25611e-05
-2.67879e-05
2.2895e-05
-2.71485e-05
2.15522e-05
-2.71014e-05
1.9534e-05
-2.71153e-05
1.66928e-05
-2.72529e-05
1.37341e-05
1.08413e-05
-2.73547e-05
-3.74748e-06
-2.21657e-06
-8.71676e-06
2.87019e-06
-1.37251e-05
9.81057e-06
-1.78543e-05
1.6789e-05
-2.01586e-05
2.1503e-05
-2.06706e-05
2.30733e-05
-2.03146e-05
2.25391e-05
-1.96762e-05
2.09139e-05
-1.88959e-05
1.87537e-05
-1.83373e-05
1.61342e-05
-1.79796e-05
1.33763e-05
1.05929e-05
-1.77314e-05
-4.84929e-06
2.63298e-06
-9.59589e-06
7.61727e-06
-1.3231e-05
1.3446e-05
-1.51267e-05
1.86851e-05
-1.52472e-05
2.1624e-05
-1.43182e-05
2.21446e-05
-1.30197e-05
2.12409e-05
-1.17073e-05
1.96015e-05
-1.05131e-05
1.75597e-05
-9.58461e-06
1.52057e-05
-8.90759e-06
1.26993e-05
1.01094e-05
-8.42416e-06
-5.03655e-06
7.67052e-06
-8.97758e-06
1.15588e-05
-1.1083e-05
1.5552e-05
-1.11397e-05
1.87424e-05
-9.74132e-06
2.02261e-05
-7.76891e-06
2.01726e-05
-5.73828e-06
1.92105e-05
-3.88105e-06
1.77446e-05
-2.28803e-06
1.59668e-05
-1.01961e-06
1.39374e-05
-5.54565e-08
1.17352e-05
9.40149e-06
6.52541e-07
-4.94405e-06
1.26151e-05
-7.8189e-06
1.44341e-05
-8.32942e-06
1.60628e-05
-6.83224e-06
1.72455e-05
-4.24909e-06
1.76432e-05
-1.38789e-06
1.73117e-05
1.33471e-06
1.64881e-05
3.73974e-06
1.53397e-05
5.76659e-06
1.394e-05
7.39738e-06
1.23067e-05
8.66466e-06
1.0468e-05
8.44779e-06
9.6184e-06
-4.38244e-06
1.6998e-05
-6.05267e-06
1.61045e-05
-4.85486e-06
1.48652e-05
-1.9639e-06
1.43547e-05
1.66707e-06
1.40124e-05
5.33978e-06
1.36391e-05
8.70345e-06
1.31246e-05
1.16199e-05
1.24234e-05
1.40556e-05
1.15044e-05
1.60224e-05
1.034e-05
1.75691e-05
8.92132e-06
7.26328e-06
1.87536e-05
-3.97616e-06
2.09742e-05
-2.9568e-06
1.50852e-05
7.18914e-07
1.11895e-05
5.09268e-06
9.98104e-06
9.61989e-06
9.4853e-06
1.38618e-05
9.3973e-06
1.76021e-05
9.38442e-06
2.07764e-05
9.24925e-06
2.33957e-05
8.88512e-06
2.55049e-05
8.23087e-06
2.71727e-05
7.25353e-06
5.97087e-06
2.84652e-05
4.71708e-07
2.05027e-05
5.98533e-06
9.57164e-06
1.18854e-05
5.28951e-06
1.72643e-05
4.60216e-06
2.20001e-05
4.74959e-06
2.60657e-05
5.33179e-06
2.94963e-05
5.95396e-06
3.23407e-05
6.40502e-06
3.46591e-05
6.56674e-06
3.65155e-05
6.37456e-06
3.79897e-05
5.77936e-06
4.81575e-06
3.91449e-05
2.01737e-05
3.28826e-07
2.83845e-05
1.36078e-06
3.34589e-05
2.15151e-07
3.73756e-05
6.85437e-07
4.04206e-05
1.70463e-06
4.2926e-05
2.82647e-06
4.50299e-05
3.85012e-06
4.67758e-05
4.65917e-06
4.81967e-05
5.14589e-06
4.93263e-05
5.24501e-06
5.02304e-05
4.87536e-06
5.09528e-05
4.09336e-06
-5.27047e-05
5.60419e-06
-5.63499e-05
3.64501e-06
-5.80016e-05
1.65173e-06
-5.78784e-05
-1.2331e-07
-5.6019e-05
-1.85931e-06
-5.24425e-05
-3.5765e-06
-4.69358e-05
-5.50665e-06
-3.9488e-05
-7.44775e-06
-2.99258e-05
-9.56208e-06
-1.84721e-05
-1.14535e-05
-7.05835e-06
-1.14135e-05
-7.05824e-06
-4.72048e-05
7.13945e-06
-4.80248e-05
4.46497e-06
-4.82603e-05
1.88728e-06
-4.78262e-05
-5.5743e-07
-4.66785e-05
-3.00688e-06
-4.46081e-05
-5.64683e-06
-4.15508e-05
-8.56389e-06
-3.71704e-05
-1.1828e-05
-3.1278e-05
-1.54543e-05
-2.35857e-05
-1.91457e-05
-1.31394e-05
-2.18595e-05
-2.01976e-05
-3.69263e-05
7.80062e-06
-3.74105e-05
4.94912e-06
-3.76401e-05
2.11692e-06
-3.7445e-05
-7.525e-07
-3.66742e-05
-3.77767e-06
-3.5263e-05
-7.05791e-06
-3.31078e-05
-1.0719e-05
-3.00781e-05
-1.48576e-05
-2.60873e-05
-1.9445e-05
-2.06574e-05
-2.45755e-05
-1.27842e-05
-2.97325e-05
-3.29817e-05
-2.74544e-05
7.90026e-06
-2.74728e-05
4.96741e-06
-2.73526e-05
1.99673e-06
-2.70189e-05
-1.08616e-06
-2.64076e-05
-4.38896e-06
-2.54507e-05
-8.01473e-06
-2.40597e-05
-1.21099e-05
-2.21078e-05
-1.68095e-05
-1.93873e-05
-2.21654e-05
-1.54098e-05
-2.85528e-05
-9.41499e-06
-3.57272e-05
-4.23967e-05
-1.75802e-05
7.74896e-06
-1.74672e-05
4.85443e-06
-1.73371e-05
1.86661e-06
-1.71378e-05
-1.2855e-06
-1.6828e-05
-4.69871e-06
-1.63603e-05
-8.48246e-06
-1.56763e-05
-1.27938e-05
-1.47145e-05
-1.77713e-05
-1.3274e-05
-2.36057e-05
-1.11379e-05
-3.06887e-05
-7.42942e-06
-3.94356e-05
-4.9826e-05
-8.10273e-06
7.42751e-06
-7.89756e-06
4.64924e-06
-7.76839e-06
1.73745e-06
-7.68405e-06
-1.3698e-06
-7.62358e-06
-4.75912e-06
-7.56701e-06
-8.53893e-06
-7.51004e-06
-1.28507e-05
-7.41659e-06
-1.78646e-05
-7.17262e-06
-2.38495e-05
-6.5972e-06
-3.1264e-05
-4.86921e-06
-4.11634e-05
-5.46951e-05
1.14273e-06
6.93735e-06
1.45221e-06
4.3398e-06
1.608e-06
1.58175e-06
1.62297e-06
-1.38469e-06
1.49528e-06
-4.63129e-06
1.2105e-06
-8.25403e-06
7.40118e-07
-1.23801e-05
6.57789e-08
-1.71901e-05
-7.89269e-07
-2.29943e-05
-1.70688e-06
-3.03462e-05
-2.22688e-06
-4.06432e-05
-5.69219e-05
1.03036e-05
6.25216e-06
1.07537e-05
3.88978e-06
1.09875e-05
1.34806e-06
1.10044e-05
-1.40145e-06
1.07835e-05
-4.41024e-06
1.02809e-05
-7.75131e-06
9.42215e-06
-1.15212e-05
8.11391e-06
-1.58817e-05
6.2614e-06
-2.11416e-05
3.84413e-06
-2.79288e-05
1.24226e-06
-3.80411e-05
-5.56795e-05
1.9632e-05
5.37382e-06
2.02384e-05
3.28341e-06
2.05896e-05
9.97009e-07
2.06765e-05
-1.48822e-06
2.04642e-05
-4.19777e-06
1.98847e-05
-7.17162e-06
1.88144e-05
-1.04507e-05
1.70755e-05
-1.41426e-05
1.44222e-05
-1.84882e-05
1.05976e-05
-2.41039e-05
5.6958e-06
-3.31391e-05
-4.99836e-05
2.94522e-05
4.38687e-06
3.01681e-05
2.56758e-06
3.06319e-05
5.33307e-07
3.08305e-05
-1.68671e-06
3.07182e-05
-4.08526e-06
3.02086e-05
-6.66189e-06
2.91359e-05
-9.37789e-06
2.72458e-05
-1.22524e-05
2.41275e-05
-1.53698e-05
1.9276e-05
-1.92524e-05
1.18787e-05
-2.57417e-05
-3.81048e-05
4.00649e-05
3.46696e-06
4.07742e-05
1.85832e-06
4.1295e-05
1.26666e-08
4.16119e-05
-2.00347e-06
4.16705e-05
-4.14367e-06
4.13721e-05
-6.36334e-06
4.05243e-05
-8.52998e-06
3.8831e-05
-1.05589e-05
3.57422e-05
-1.22809e-05
3.05224e-05
-1.40325e-05
2.06618e-05
-1.58809e-05
-1.74429e-05
5.15974e-05
2.82236e-06
5.21634e-05
1.29244e-06
5.26735e-05
-4.97415e-07
5.31048e-05
-2.43456e-06
5.33899e-05
-4.42868e-06
5.34204e-05
-6.39377e-06
5.30024e-05
-8.11184e-06
5.18678e-05
-9.42431e-06
4.9493e-05
-9.90593e-06
4.49407e-05
-9.48025e-06
3.45781e-05
-5.5182e-06
1.71353e-05
5.16331e-06
-5.16315e-06
8.75658e-06
-3.59408e-06
1.14663e-05
-2.70962e-06
1.29107e-05
-1.44436e-06
1.29237e-05
-1.31444e-08
1.08678e-05
2.05847e-06
6.12417e-06
4.74333e-06
-1.31793e-06
7.44441e-06
-1.50317e-05
1.37133e-05
-2.88807e-05
1.38492e-05
-3.91099e-05
1.0229e-05
7.98804e-06
-4.70982e-05
1.56337e-06
-6.72631e-06
3.79636e-06
-5.82745e-06
3.82828e-06
-2.74136e-06
1.83353e-06
5.50525e-07
-2.71369e-06
4.5344e-06
-1.11469e-05
1.04923e-05
-2.29426e-05
1.65393e-05
-3.39412e-05
1.84433e-05
-3.87827e-05
1.85549e-05
-4.10691e-05
1.61355e-05
-4.35939e-05
1.27538e-05
1.00643e-05
-4.56704e-05
1.13633e-06
-7.8624e-06
6.41326e-07
-5.33254e-06
-1.89488e-06
-2.05075e-07
-7.54911e-06
6.20489e-06
-1.65312e-05
1.35166e-05
-2.53399e-05
1.93014e-05
-3.04223e-05
2.16218e-05
-3.31717e-05
2.1193e-05
-3.41999e-05
1.9583e-05
-3.47457e-05
1.66812e-05
-3.55902e-05
1.35982e-05
1.07409e-05
-3.62669e-05
-1.89453e-06
-5.96761e-06
-5.12312e-06
-2.1039e-06
-1.01257e-05
4.79772e-06
-1.65767e-05
1.26561e-05
-2.22569e-05
1.91969e-05
-2.55167e-05
2.25614e-05
-2.67911e-05
2.28962e-05
-2.71517e-05
2.15536e-05
-2.71044e-05
1.95356e-05
-2.71178e-05
1.66945e-05
-2.72552e-05
1.37354e-05
1.08423e-05
-2.73567e-05
-3.7482e-06
-2.21912e-06
-8.71757e-06
2.86603e-06
-1.37267e-05
9.80691e-06
-1.78571e-05
1.67867e-05
-2.01623e-05
2.15024e-05
-2.06745e-05
2.30737e-05
-2.03181e-05
2.25401e-05
-1.96795e-05
2.09149e-05
-1.88987e-05
1.87549e-05
-1.83397e-05
1.61353e-05
-1.79816e-05
1.33772e-05
1.05936e-05
-1.7733e-05
-4.84924e-06
2.63188e-06
-9.59753e-06
7.61449e-06
-1.32337e-05
1.34439e-05
-1.51304e-05
1.86839e-05
-1.52513e-05
2.16237e-05
-1.43219e-05
2.21449e-05
-1.30232e-05
2.12414e-05
-1.17101e-05
1.96022e-05
-1.05156e-05
1.75603e-05
-9.58656e-06
1.52064e-05
-8.90923e-06
1.26997e-05
1.01097e-05
-8.42541e-06
-5.03741e-06
7.66996e-06
-8.97947e-06
1.15575e-05
-1.1086e-05
1.55507e-05
-1.11433e-05
1.87417e-05
-9.74482e-06
2.02259e-05
-7.77216e-06
2.01727e-05
-5.74106e-06
1.92108e-05
-3.88345e-06
1.77448e-05
-2.28997e-06
1.5967e-05
-1.02117e-06
1.39376e-05
-5.66468e-08
1.17353e-05
9.40144e-06
6.51651e-07
-4.94485e-06
1.26157e-05
-7.82081e-06
1.44336e-05
-8.33196e-06
1.60624e-05
-6.83502e-06
1.72452e-05
-4.25177e-06
1.7643e-05
-1.39033e-06
1.73116e-05
1.3326e-06
1.64881e-05
3.73799e-06
1.53397e-05
5.76521e-06
1.394e-05
7.39634e-06
1.23066e-05
8.66393e-06
1.04677e-05
8.44744e-06
9.61795e-06
-4.38326e-06
1.69993e-05
-6.05392e-06
1.61047e-05
-4.85647e-06
1.4865e-05
-1.96561e-06
1.43545e-05
1.66543e-06
1.40122e-05
5.33832e-06
1.36389e-05
8.70223e-06
1.31244e-05
1.16189e-05
1.24232e-05
1.40549e-05
1.15041e-05
1.6022e-05
1.03396e-05
1.75689e-05
8.92084e-06
7.26269e-06
1.87537e-05
-3.9762e-06
2.0976e-05
-2.95697e-06
1.50855e-05
7.18695e-07
1.11896e-05
5.09236e-06
9.98095e-06
9.61962e-06
9.48512e-06
1.38616e-05
9.39704e-06
1.76021e-05
9.3841e-06
2.07765e-05
9.24886e-06
2.3396e-05
8.88464e-06
2.55054e-05
8.23033e-06
2.71734e-05
7.25289e-06
5.97013e-06
2.8466e-05
4.7237e-07
2.05039e-05
5.98637e-06
9.57181e-06
1.18864e-05
5.28942e-06
1.72655e-05
4.60204e-06
2.20013e-05
4.74942e-06
2.60669e-05
5.33154e-06
2.94975e-05
5.95364e-06
3.23419e-05
6.40461e-06
3.46604e-05
6.56624e-06
3.65169e-05
6.37397e-06
3.79911e-05
5.77866e-06
4.81497e-06
3.91464e-05
2.01752e-05
3.28956e-07
2.83865e-05
1.36045e-06
3.3461e-05
2.15187e-07
3.73777e-05
6.85379e-07
4.04227e-05
1.70449e-06
4.2928e-05
2.82624e-06
4.5032e-05
3.84981e-06
4.67779e-05
4.65877e-06
4.81988e-05
5.14541e-06
4.93283e-05
5.24445e-06
5.02323e-05
4.87471e-06
5.09547e-05
4.09261e-06
-5.27034e-05
5.60512e-06
-5.63497e-05
3.6462e-06
-5.80019e-05
1.6522e-06
-5.78792e-05
-1.22766e-07
-5.602e-05
-1.85917e-06
-5.24437e-05
-3.5763e-06
-4.6937e-05
-5.50672e-06
-3.94891e-05
-7.44783e-06
-2.99267e-05
-9.56236e-06
-1.84728e-05
-1.14538e-05
-7.05876e-06
-1.1414e-05
-7.05871e-06
-4.72061e-05
7.14082e-06
-4.8026e-05
4.466e-06
-4.82617e-05
1.88791e-06
-4.78274e-05
-5.57026e-07
-4.66799e-05
-3.0067e-06
-4.46093e-05
-5.64683e-06
-4.15519e-05
-8.56407e-06
-3.71714e-05
-1.18284e-05
-3.12789e-05
-1.54548e-05
-2.35863e-05
-1.91463e-05
-1.31399e-05
-2.18603e-05
-2.01986e-05
-3.69279e-05
7.80172e-06
-3.74119e-05
4.94993e-06
-3.76415e-05
2.11742e-06
-3.74463e-05
-7.52264e-07
-3.66753e-05
-3.77768e-06
-3.5264e-05
-7.05812e-06
-3.31087e-05
-1.07194e-05
-3.00788e-05
-1.48582e-05
-2.60879e-05
-1.94457e-05
-2.06578e-05
-2.45764e-05
-1.27845e-05
-2.97336e-05
-3.2983e-05
-2.74561e-05
7.90104e-06
-2.74742e-05
4.96792e-06
-2.73538e-05
1.99695e-06
-2.70199e-05
-1.08618e-06
-2.64084e-05
-4.38918e-06
-2.54514e-05
-8.01513e-06
-2.40603e-05
-1.21105e-05
-2.21083e-05
-1.68102e-05
-1.93877e-05
-2.21662e-05
-1.54102e-05
-2.85538e-05
-9.41524e-06
-3.57285e-05
-4.23982e-05
-1.75815e-05
7.7494e-06
-1.74683e-05
4.85461e-06
-1.7338e-05
1.86656e-06
-1.71385e-05
-1.28575e-06
-1.68285e-05
-4.69913e-06
-1.63606e-05
-8.48301e-06
-1.56766e-05
-1.27945e-05
-1.47147e-05
-1.7772e-05
-1.32743e-05
-2.36066e-05
-1.11382e-05
-3.06899e-05
-7.4296e-06
-3.9437e-05
-4.98278e-05
-8.10371e-06
7.42759e-06
-7.89827e-06
4.64913e-06
-7.7689e-06
1.73715e-06
-7.68439e-06
-1.37026e-06
-7.62378e-06
-4.75971e-06
-7.56713e-06
-8.53964e-06
-7.51009e-06
-1.28514e-05
-7.41665e-06
-1.78655e-05
-7.17269e-06
-2.38505e-05
-6.59733e-06
-3.12652e-05
-4.86935e-06
-4.11649e-05
-5.46971e-05
1.14212e-06
6.93713e-06
1.45185e-06
4.33942e-06
1.60783e-06
1.5812e-06
1.62297e-06
-1.38535e-06
1.49539e-06
-4.63207e-06
1.21071e-06
-8.25487e-06
7.40339e-07
-1.2381e-05
6.60016e-08
-1.7191e-05
-7.89109e-07
-2.29954e-05
-1.70685e-06
-3.03474e-05
-2.22694e-06
-4.06447e-05
-5.6924e-05
1.03034e-05
6.25167e-06
1.07537e-05
3.88915e-06
1.09877e-05
1.34733e-06
1.10047e-05
-1.40229e-06
1.07839e-05
-4.41116e-06
1.02814e-05
-7.75228e-06
9.42272e-06
-1.15222e-05
8.11444e-06
-1.58827e-05
6.26181e-06
-2.11426e-05
3.84442e-06
-2.79299e-05
1.24235e-06
-3.80426e-05
-5.56815e-05
1.96323e-05
5.37312e-06
2.0239e-05
3.28259e-06
2.05903e-05
9.96113e-07
2.06773e-05
-1.4892e-06
2.04651e-05
-4.1988e-06
1.98856e-05
-7.17269e-06
1.88153e-05
-1.04518e-05
1.70764e-05
-1.41436e-05
1.4423e-05
-1.84892e-05
1.05981e-05
-2.4105e-05
5.69607e-06
-3.31404e-05
-4.99854e-05
2.94531e-05
4.38603e-06
3.01692e-05
2.56665e-06
3.06331e-05
5.32293e-07
3.08318e-05
-1.68778e-06
3.07195e-05
-4.08638e-06
3.02099e-05
-6.66301e-06
2.91372e-05
-9.37898e-06
2.72471e-05
-1.22534e-05
2.41286e-05
-1.53706e-05
1.92769e-05
-1.92532e-05
1.18792e-05
-2.57426e-05
-3.81061e-05
4.00664e-05
3.46607e-06
4.07758e-05
1.85735e-06
4.12967e-05
1.16047e-08
4.16136e-05
-2.00458e-06
4.16722e-05
-4.14484e-06
4.13738e-05
-6.36449e-06
4.0526e-05
-8.53108e-06
3.88326e-05
-1.05599e-05
3.57437e-05
-1.22816e-05
3.05236e-05
-1.40331e-05
2.06626e-05
-1.58814e-05
-1.74435e-05
5.15994e-05
2.8215e-06
5.21654e-05
1.29147e-06
5.26756e-05
-4.98474e-07
5.31068e-05
-2.43571e-06
5.33919e-05
-4.42986e-06
5.34224e-05
-6.39495e-06
5.30044e-05
-8.11292e-06
5.18697e-05
-9.42518e-06
4.94947e-05
-9.90655e-06
4.49423e-05
-9.48055e-06
3.45791e-05
-5.51835e-06
1.71359e-05
5.16277e-06
-5.1622e-06
8.75505e-06
-3.59273e-06
1.14638e-05
-2.70818e-06
1.29073e-05
-1.44298e-06
1.29179e-05
-9.99499e-09
1.08565e-05
2.06483e-06
6.11068e-06
4.74622e-06
-1.34341e-06
7.45698e-06
-1.50614e-05
1.37176e-05
-2.88993e-05
1.38381e-05
-3.91225e-05
1.02227e-05
7.98224e-06
-4.71051e-05
1.56152e-06
-6.72321e-06
3.79112e-06
-5.8226e-06
3.81972e-06
-2.73623e-06
1.82104e-06
5.56357e-07
-2.73185e-06
4.54381e-06
-1.11715e-05
1.05056e-05
-2.29685e-05
1.65436e-05
-3.39515e-05
1.84403e-05
-3.87819e-05
1.85481e-05
-4.10689e-05
1.6125e-05
-4.35928e-05
1.27465e-05
1.00582e-05
-4.56689e-05
1.13292e-06
-7.85611e-06
6.33335e-07
-5.3231e-06
-1.90842e-06
-1.94311e-07
-7.57067e-06
6.21892e-06
-1.65561e-05
1.35295e-05
-2.53539e-05
1.93038e-05
-3.04259e-05
2.16159e-05
-3.31701e-05
2.11847e-05
-3.41956e-05
1.95737e-05
-3.47421e-05
1.66714e-05
-3.55863e-05
1.35906e-05
1.07346e-05
-3.62629e-05
-1.89868e-06
-5.9574e-06
-5.1336e-06
-2.0882e-06
-1.01422e-05
4.81441e-06
-1.65925e-05
1.26695e-05
-2.22638e-05
1.92011e-05
-2.55158e-05
2.25561e-05
-2.67868e-05
2.28871e-05
-2.71461e-05
2.15442e-05
-2.70986e-05
1.95262e-05
-2.71128e-05
1.66856e-05
-2.72503e-05
1.37281e-05
1.08363e-05
-2.73521e-05
-3.75187e-06
-2.20536e-06
-8.72423e-06
2.88435e-06
-1.37322e-05
9.82268e-06
-1.78575e-05
1.67951e-05
-2.01573e-05
2.15012e-05
-2.06674e-05
2.30667e-05
-2.03113e-05
2.25312e-05
-1.96727e-05
2.09059e-05
-1.88928e-05
1.87464e-05
-1.83348e-05
1.61276e-05
-1.79773e-05
1.33706e-05
1.05881e-05
-1.77292e-05
-4.85211e-06
2.64721e-06
-9.59775e-06
7.63047e-06
-1.32302e-05
1.34557e-05
-1.51232e-05
1.86886e-05
-1.52426e-05
2.16213e-05
-1.43139e-05
2.21385e-05
-1.30161e-05
2.12339e-05
-1.17043e-05
1.95945e-05
-1.05107e-05
1.75531e-05
-9.58272e-06
1.51996e-05
-8.90596e-06
1.2694e-05
1.01049e-05
-8.42268e-06
-5.03531e-06
7.68351e-06
-8.97452e-06
1.15703e-05
-1.10779e-05
1.55597e-05
-1.11336e-05
1.8745e-05
-9.73585e-06
2.0224e-05
-7.76466e-06
2.01679e-05
-5.7352e-06
1.92048e-05
-3.87885e-06
1.77386e-05
-2.28644e-06
1.59609e-05
-1.01843e-06
1.39319e-05
-5.45109e-08
1.17302e-05
9.39709e-06
6.53396e-07
-4.94129e-06
1.26252e-05
-7.81352e-06
1.4443e-05
-8.32256e-06
1.60691e-05
-6.82539e-06
1.72483e-05
-4.24347e-06
1.76424e-05
-1.38376e-06
1.73086e-05
1.33754e-06
1.64838e-05
3.74161e-06
1.53348e-05
5.76782e-06
1.3935e-05
7.39821e-06
1.23017e-05
8.66529e-06
1.04633e-05
8.44355e-06
9.61895e-06
-4.37849e-06
1.70042e-05
-6.04625e-06
1.6111e-05
-4.8474e-06
1.48705e-05
-1.95667e-06
1.43577e-05
1.67313e-06
1.40128e-05
5.34441e-06
1.36375e-05
8.70678e-06
1.31217e-05
1.16222e-05
1.24196e-05
1.40572e-05
1.15002e-05
1.60235e-05
1.03356e-05
1.757e-05
8.91704e-06
7.25926e-06
1.87544e-05
-3.97232e-06
2.09767e-05
-2.95119e-06
1.50899e-05
7.25892e-07
1.11935e-05
5.09983e-06
9.98374e-06
9.62637e-06
9.48633e-06
1.38672e-05
9.39669e-06
1.76064e-05
9.38252e-06
2.07798e-05
9.24643e-06
2.33984e-05
8.88169e-06
2.5507e-05
8.22714e-06
2.71744e-05
7.24973e-06
5.9672e-06
2.84666e-05
4.73628e-07
2.05033e-05
5.98985e-06
9.57375e-06
1.18914e-05
5.29192e-06
1.72709e-05
4.60421e-06
2.20066e-05
4.75064e-06
2.60717e-05
5.33162e-06
2.95016e-05
5.9527e-06
3.23452e-05
6.40292e-06
3.46629e-05
6.56403e-06
3.65187e-05
6.37148e-06
3.79924e-05
5.77614e-06
4.81257e-06
3.91472e-05
2.01755e-05
3.2767e-07
2.83882e-05
1.36102e-06
3.34637e-05
2.16328e-07
3.73813e-05
6.86574e-07
4.04267e-05
1.7052e-06
4.2932e-05
2.82625e-06
4.50356e-05
3.8491e-06
4.6781e-05
4.6575e-06
4.82014e-05
5.14373e-06
4.93304e-05
5.24255e-06
5.02338e-05
4.87276e-06
5.09557e-05
4.09077e-06
-5.27071e-05
5.6017e-06
-5.63498e-05
3.64244e-06
-5.80004e-05
1.65048e-06
-5.78762e-05
-1.24425e-07
-5.60165e-05
-1.85977e-06
-5.24397e-05
-3.57689e-06
-4.69331e-05
-5.50658e-06
-3.94855e-05
-7.44759e-06
-2.99239e-05
-9.5616e-06
-1.8471e-05
-1.14529e-05
-7.05803e-06
-1.14129e-05
-7.05799e-06
-4.7203e-05
7.1356e-06
-4.80228e-05
4.46205e-06
-4.82577e-05
1.88533e-06
-4.78234e-05
-5.58773e-07
-4.66756e-05
-3.00768e-06
-4.46053e-05
-5.64717e-06
-4.1548e-05
-8.5638e-06
-3.7168e-05
-1.18276e-05
-3.12761e-05
-1.54535e-05
-2.35844e-05
-1.91446e-05
-1.31388e-05
-2.18584e-05
-2.01967e-05
-3.69241e-05
7.7966e-06
-3.74081e-05
4.94599e-06
-3.76375e-05
2.11464e-06
-3.74423e-05
-7.54038e-07
-3.66715e-05
-3.77852e-06
-3.52605e-05
-7.05817e-06
-3.31055e-05
-1.07187e-05
-3.00761e-05
-1.4857e-05
-2.60857e-05
-1.94439e-05
-2.06561e-05
-2.45741e-05
-1.27835e-05
-2.97309e-05
-3.29801e-05
-2.74518e-05
7.89622e-06
-2.74702e-05
4.96428e-06
-2.73501e-05
1.99447e-06
-2.70165e-05
-1.08765e-06
-2.64053e-05
-4.38975e-06
-2.54486e-05
-8.0149e-06
-2.40578e-05
-1.21095e-05
-2.21061e-05
-1.68086e-05
-1.93859e-05
-2.2164e-05
-1.54089e-05
-2.8551e-05
-9.41448e-06
-3.57252e-05
-4.23946e-05
-1.75781e-05
7.74504e-06
-1.74653e-05
4.85136e-06
-1.73352e-05
1.86435e-06
-1.71359e-05
-1.287e-06
-1.68261e-05
-4.69951e-06
-1.63584e-05
-8.48258e-06
-1.56746e-05
-1.27932e-05
-1.4713e-05
-1.77702e-05
-1.32729e-05
-2.36041e-05
-1.11371e-05
-3.06867e-05
-7.429e-06
-3.94333e-05
-4.98236e-05
-8.10132e-06
7.42369e-06
-7.89616e-06
4.64618e-06
-7.76695e-06
1.73515e-06
-7.68256e-06
-1.37138e-06
-7.62205e-06
-4.75999e-06
-7.56548e-06
-8.5391e-06
-7.50856e-06
-1.28501e-05
-7.41528e-06
-1.78634e-05
-7.17157e-06
-2.38477e-05
-6.59647e-06
-3.12618e-05
-4.86884e-06
-4.11608e-05
-5.46924e-05
1.14358e-06
6.93358e-06
1.45312e-06
4.33669e-06
1.60899e-06
1.57932e-06
1.62408e-06
-1.38642e-06
1.49649e-06
-4.63231e-06
1.21178e-06
-8.25432e-06
7.41397e-07
-1.23796e-05
6.6945e-08
-1.71888e-05
-7.88304e-07
-2.29924e-05
-1.70623e-06
-3.03437e-05
-2.22652e-06
-4.06404e-05
-5.69188e-05
1.03042e-05
6.24842e-06
1.07544e-05
3.88661e-06
1.09882e-05
1.34552e-06
1.10052e-05
-1.40333e-06
1.07845e-05
-4.41142e-06
1.0282e-05
-7.75174e-06
9.42329e-06
-1.15208e-05
8.11499e-06
-1.58804e-05
6.2623e-06
-2.11395e-05
3.84474e-06
-2.79261e-05
1.24259e-06
-3.80381e-05
-5.56761e-05
1.96327e-05
5.37018e-06
2.02392e-05
3.28026e-06
2.05904e-05
9.94425e-07
2.06774e-05
-1.49018e-06
2.04651e-05
-4.19906e-06
1.98857e-05
-7.17216e-06
1.88154e-05
-1.04504e-05
1.70765e-05
-1.41414e-05
1.44231e-05
-1.84861e-05
1.05982e-05
-2.4101e-05
5.6961e-06
-3.31359e-05
-4.998e-05
2.94534e-05
4.38347e-06
3.01692e-05
2.56458e-06
3.06329e-05
5.30806e-07
3.08315e-05
-1.68864e-06
3.07191e-05
-4.08655e-06
3.02095e-05
-6.66244e-06
2.91369e-05
-9.37759e-06
2.72467e-05
-1.22511e-05
2.41283e-05
-1.53675e-05
1.92767e-05
-1.92493e-05
1.1879e-05
-2.57381e-05
-3.81009e-05
4.00668e-05
3.46395e-06
4.07759e-05
1.85562e-06
4.12964e-05
1.03973e-08
4.16131e-05
-2.00522e-06
4.16716e-05
-4.14482e-06
4.1373e-05
-6.36377e-06
4.05252e-05
-8.52957e-06
3.88317e-05
-1.05575e-05
3.57428e-05
-1.22785e-05
3.05229e-05
-1.40293e-05
2.06621e-05
-1.58772e-05
-1.74388e-05
5.15998e-05
2.81985e-06
5.21654e-05
1.29016e-06
5.26752e-05
-4.99334e-07
5.31061e-05
-2.43601e-06
5.3391e-05
-4.42955e-06
5.34213e-05
-6.39394e-06
5.30029e-05
-8.11115e-06
5.18681e-05
-9.42261e-06
4.9493e-05
-9.90332e-06
4.49407e-05
-9.47701e-06
3.4578e-05
-5.51444e-06
1.71393e-05
5.16342e-06
-5.16324e-06
8.75667e-06
-3.59404e-06
1.14663e-05
-2.70951e-06
1.29105e-05
-1.44417e-06
1.29231e-05
-1.2675e-08
1.08661e-05
2.05954e-06
6.12168e-06
4.74415e-06
-1.32386e-06
7.44786e-06
-1.50398e-05
1.37155e-05
-2.88873e-05
1.38477e-05
-3.91156e-05
1.0228e-05
7.98714e-06
-4.71029e-05
1.56335e-06
-6.72637e-06
3.79609e-06
-5.82716e-06
3.82756e-06
-2.74079e-06
1.83206e-06
5.51492e-07
-2.71653e-06
4.53625e-06
-1.11517e-05
1.04954e-05
-2.29487e-05
1.65414e-05
-3.39449e-05
1.84444e-05
-3.87844e-05
1.8555e-05
-4.10712e-05
1.61344e-05
-4.35961e-05
1.2753e-05
1.00635e-05
-4.56727e-05
1.13614e-06
-7.86228e-06
6.40788e-07
-5.3319e-06
-1.89609e-06
-2.03823e-07
-7.55157e-06
6.2071e-06
-1.65346e-05
1.35194e-05
-2.53426e-05
1.93037e-05
-3.04242e-05
2.16231e-05
-3.31731e-05
2.11935e-05
-3.4201e-05
1.95829e-05
-3.47471e-05
1.66804e-05
-3.55917e-05
1.35975e-05
1.07401e-05
-3.62685e-05
-1.89467e-06
-5.96733e-06
-5.12364e-06
-2.10288e-06
-1.01268e-05
4.79956e-06
-1.65782e-05
1.26586e-05
-2.22581e-05
1.91995e-05
-2.55177e-05
2.25634e-05
-2.67919e-05
2.28973e-05
-2.71524e-05
2.15542e-05
-2.71052e-05
1.95356e-05
-2.71189e-05
1.6694e-05
-2.72563e-05
1.37348e-05
1.08416e-05
-2.73579e-05
-3.74824e-06
-2.21879e-06
-8.71771e-06
2.86718e-06
-1.3727e-05
9.80889e-06
-1.78574e-05
1.67894e-05
-2.01626e-05
2.1505e-05
-2.06747e-05
2.30757e-05
-2.03184e-05
2.25413e-05
-1.96799e-05
2.09155e-05
-1.88993e-05
1.8755e-05
-1.83405e-05
1.61351e-05
-1.79825e-05
1.33767e-05
1.05929e-05
-1.7734e-05
-4.84919e-06
2.63229e-06
-9.59745e-06
7.61562e-06
-1.32336e-05
1.34459e-05
-1.51303e-05
1.86865e-05
-1.52512e-05
2.16263e-05
-1.43218e-05
2.21469e-05
-1.30231e-05
2.12427e-05
-1.17103e-05
1.9603e-05
-1.0516e-05
1.75606e-05
-9.58706e-06
1.52063e-05
-8.90983e-06
1.26994e-05
1.01091e-05
-8.42608e-06
-5.03728e-06
7.67028e-06
-8.97928e-06
1.15586e-05
-1.10858e-05
1.55527e-05
-1.11429e-05
1.87443e-05
-9.74436e-06
2.02284e-05
-7.77172e-06
2.01747e-05
-5.74073e-06
1.92122e-05
-3.88327e-06
1.77457e-05
-2.28994e-06
1.59675e-05
-1.02129e-06
1.39377e-05
-5.6861e-08
1.1735e-05
9.4009e-06
6.51379e-07
-4.94468e-06
1.26159e-05
-7.82061e-06
1.44347e-05
-8.33164e-06
1.60643e-05
-6.83446e-06
1.72475e-05
-4.25104e-06
1.76453e-05
-1.38957e-06
1.73136e-05
1.33328e-06
1.64896e-05
3.73853e-06
1.53407e-05
5.76561e-06
1.39406e-05
7.39661e-06
1.23068e-05
8.66412e-06
1.04676e-05
8.44696e-06
9.61808e-06
-4.38328e-06
1.69995e-05
-6.05382e-06
1.61057e-05
-4.85613e-06
1.48666e-05
-1.96497e-06
1.43565e-05
1.66624e-06
1.40143e-05
5.3392e-06
1.36408e-05
8.70306e-06
1.3126e-05
1.16196e-05
1.24243e-05
1.40555e-05
1.15048e-05
1.60225e-05
1.03399e-05
1.75694e-05
8.92073e-06
7.26224e-06
1.87542e-05
-3.97623e-06
2.09763e-05
-2.95698e-06
1.50865e-05
7.18836e-07
1.11911e-05
5.0927e-06
9.98276e-06
9.62012e-06
9.48706e-06
1.38622e-05
9.39888e-06
1.76027e-05
9.38565e-06
2.07771e-05
9.25002e-06
2.33966e-05
8.88538e-06
2.55059e-05
8.23062e-06
2.71739e-05
7.25278e-06
5.96967e-06
2.84665e-05
4.72246e-07
2.05043e-05
5.98605e-06
9.573e-06
1.1886e-05
5.29101e-06
1.72651e-05
4.60384e-06
2.2001e-05
4.75129e-06
2.60667e-05
5.33329e-06
2.94974e-05
5.9551e-06
3.23418e-05
6.40568e-06
3.46604e-05
6.56687e-06
3.6517e-05
6.37415e-06
3.79914e-05
5.77843e-06
4.81438e-06
3.91468e-05
2.0174e-05
3.30557e-07
2.83848e-05
1.36218e-06
3.3459e-05
2.16993e-07
3.73757e-05
6.87247e-07
4.04207e-05
1.70627e-06
4.29263e-05
2.82781e-06
4.50304e-05
3.85106e-06
4.67766e-05
4.6596e-06
4.81977e-05
5.14577e-06
4.93276e-05
5.24433e-06
5.02319e-05
4.87417e-06
5.09546e-05
4.09172e-06
-5.27075e-05
5.60449e-06
-5.6353e-05
3.64537e-06
-5.80047e-05
1.65171e-06
-5.78815e-05
-1.2331e-07
-5.60219e-05
-1.85955e-06
-5.24452e-05
-3.57673e-06
-4.69381e-05
-5.507e-06
-3.949e-05
-7.44811e-06
-2.99275e-05
-9.56254e-06
-1.84734e-05
-1.1454e-05
-7.05918e-06
-1.14141e-05
-7.05914e-06
-4.72081e-05
7.13987e-06
-4.80279e-05
4.46513e-06
-4.82633e-05
1.88716e-06
-4.7829e-05
-5.57723e-07
-4.66811e-05
-3.00736e-06
-4.46104e-05
-5.64744e-06
-4.15528e-05
-8.56462e-06
-3.7172e-05
-1.18288e-05
-3.12793e-05
-1.54552e-05
-2.35866e-05
-1.91466e-05
-1.314e-05
-2.18606e-05
-2.01991e-05
-3.69295e-05
7.80084e-06
-3.74135e-05
4.94903e-06
-3.76429e-05
2.11653e-06
-3.74475e-05
-7.53143e-07
-3.66764e-05
-3.77853e-06
-3.52649e-05
-7.05894e-06
-3.31093e-05
-1.07201e-05
-3.00793e-05
-1.48589e-05
-2.60881e-05
-1.94463e-05
-2.06578e-05
-2.45769e-05
-1.27844e-05
-2.9734e-05
-3.29834e-05
-2.74574e-05
7.90018e-06
-2.74754e-05
4.96699e-06
-2.7355e-05
1.99599e-06
-2.7021e-05
-1.08717e-06
-2.64093e-05
-4.39019e-06
-2.54521e-05
-8.01614e-06
-2.40608e-05
-1.21114e-05
-2.21086e-05
-1.68111e-05
-1.93879e-05
-2.2167e-05
-1.54103e-05
-2.85544e-05
-9.41523e-06
-3.57289e-05
-4.23986e-05
-1.75825e-05
7.74858e-06
-1.74693e-05
4.85367e-06
-1.73389e-05
1.86554e-06
-1.71393e-05
-1.28684e-06
-1.68292e-05
-4.70027e-06
-1.63612e-05
-8.48417e-06
-1.5677e-05
-1.27956e-05
-1.47149e-05
-1.77731e-05
-1.32743e-05
-2.36076e-05
-1.1138e-05
-3.06906e-05
-7.42941e-06
-3.94375e-05
-4.9828e-05
-8.1044e-06
7.4268e-06
-7.89894e-06
4.64818e-06
-7.76951e-06
1.73608e-06
-7.68492e-06
-1.37144e-06
-7.6242e-06
-4.76096e-06
-7.56742e-06
-8.54092e-06
-7.51024e-06
-1.28527e-05
-7.41667e-06
-1.78667e-05
-7.17259e-06
-2.38516e-05
-6.59712e-06
-3.1266e-05
-4.86915e-06
-4.11653e-05
-5.46971e-05
1.14183e-06
6.93636e-06
1.45156e-06
4.33846e-06
1.60758e-06
1.58009e-06
1.6228e-06
-1.38659e-06
1.49529e-06
-4.6334e-06
1.21071e-06
-8.25625e-06
7.40444e-07
-1.23824e-05
6.6206e-08
-1.71923e-05
-7.88819e-07
-2.29965e-05
-1.70651e-06
-3.03482e-05
-2.22661e-06
-4.06451e-05
-5.69237e-05
1.03036e-05
6.25093e-06
1.07539e-05
3.88819e-06
1.09878e-05
1.34619e-06
1.10049e-05
-1.40358e-06
1.07842e-05
-4.41254e-06
1.02817e-05
-7.75372e-06
9.42308e-06
-1.15236e-05
8.11486e-06
-1.5884e-05
6.26226e-06
-2.11438e-05
3.84487e-06
-2.79307e-05
1.24271e-06
-3.80428e-05
-5.56808e-05
1.96328e-05
5.3724e-06
2.02394e-05
3.28163e-06
2.05907e-05
9.94952e-07
2.06778e-05
-1.49052e-06
2.04656e-05
-4.20022e-06
1.98862e-05
-7.17416e-06
1.88159e-05
-1.04532e-05
1.7077e-05
-1.4145e-05
1.44236e-05
-1.84903e-05
1.05986e-05
-2.41057e-05
5.6965e-06
-3.31404e-05
-4.99843e-05
2.94537e-05
4.38527e-06
3.01698e-05
2.56565e-06
3.06337e-05
5.31094e-07
3.08325e-05
-1.68913e-06
3.07202e-05
-4.08783e-06
3.02107e-05
-6.66448e-06
2.9138e-05
-9.3804e-06
2.72478e-05
-1.22547e-05
2.41293e-05
-1.53717e-05
1.92775e-05
-1.92538e-05
1.18796e-05
-2.57425e-05
-3.81045e-05
4.00669e-05
3.46519e-06
4.07765e-05
1.85625e-06
4.12974e-05
1.0312e-08
4.16144e-05
-2.00601e-06
4.1673e-05
-4.14633e-06
4.13746e-05
-6.36595e-06
4.05268e-05
-8.53244e-06
3.88333e-05
-1.05611e-05
3.57442e-05
-1.22825e-05
3.0524e-05
-1.40336e-05
2.06629e-05
-1.58812e-05
-1.74415e-05
5.15995e-05
2.82036e-06
5.21657e-05
1.29014e-06
5.26761e-05
-4.99953e-07
5.31075e-05
-2.43727e-06
5.33926e-05
-4.4314e-06
5.34232e-05
-6.39639e-06
5.3005e-05
-8.11418e-06
5.18702e-05
-9.42619e-06
4.94949e-05
-9.90723e-06
4.49423e-05
-9.4808e-06
3.45791e-05
-5.51795e-06
1.71377e-05
6.55487e-05
4.15783e-06
-6.93776e-05
6.48519e-05
2.05756e-06
6.3484e-05
1.58305e-06
6.27447e-05
1.42479e-06
6.25357e-05
1.91368e-06
6.26391e-05
2.72316e-06
6.2876e-05
3.61331e-06
6.31226e-05
4.41269e-06
6.33134e-05
4.9551e-06
6.34287e-05
5.12977e-06
6.35163e-05
4.78778e-06
4.00138e-06
6.36084e-05
8.42242e-05
3.29599e-06
-8.33625e-05
8.38793e-05
2.40244e-06
8.3199e-05
2.26328e-06
8.23374e-05
2.28639e-06
8.15068e-05
2.74423e-06
8.0725e-05
3.50496e-06
7.99596e-05
4.37883e-06
7.9179e-05
5.19323e-06
7.83798e-05
5.75433e-06
7.75938e-05
5.91577e-06
7.69177e-05
5.46395e-06
4.48489e-06
7.64342e-05
9.72584e-05
2.3149e-06
-9.62772e-05
9.75648e-05
2.09598e-06
9.75125e-05
2.3156e-06
9.71057e-05
2.69318e-06
9.64302e-05
3.41971e-06
9.55262e-05
4.40902e-06
9.44211e-05
5.48401e-06
9.3159e-05
6.45535e-06
9.18163e-05
7.09703e-06
9.0517e-05
7.21513e-06
8.94383e-05
6.54258e-06
5.12953e-06
8.87937e-05
0.000109096
-0.000108502
1.72055e-06
0.000109362
1.83e-06
0.000109313
2.36516e-06
0.000108905
3.10051e-06
0.000108149
4.17622e-06
0.000107079
5.47832e-06
0.000105757
6.80657e-06
0.000104283
7.92852e-06
0.00010281
8.57022e-06
0.000101557
8.46857e-06
0.000100778
7.32108e-06
0.000100907
5.0014e-06
6.38603e-05
2.57052e-06