/*--------------------------------*- C++ -*----------------------------------*\
| =========                 |                                                 |
| \\      /  F ield         | OpenFOAM: The Open Source CFD Toolbox           |
|  \\    /   O peration     | Version:  4.0                                   |
|   \\  /    A nd           | Web:      www.OpenFOAM.org                      |
|    \\/     M anipulation  |                                                 |
\*---------------------------------------------------------------------------*/
FoamFile
{
    version     2.0;
    format      ascii;
    class       volVectorField;
    location    "400";
    object      U;
}
// * * * * * * * * * * * * * * * * * * * * * * * * * * * * * * * * * * * * * //

dimensions      [0 1 -1 0 0 0 0];

internalField   nonuniform List<vector> 
3072
(
(0.287818 2.21815 0)
(0.309399 1.93417 0)
(0.391922 1.76511 1.43056e-19)
(0.504445 1.65976 7.10662e-19)
(0.62041 1.58516 -1.19547e-18)
(0.751001 1.54589 7.64083e-19)
(0.896274 1.66933 3.66058e-19)
(1.3007 1.69382 9.4159e-19)
(2.26799 1.45176 -2.76283e-19)
(2.93492 1.7935 9.24526e-19)
(3.12978 2.11518 8.07369e-19)
(3.43649 2.24474 7.32819e-19)
(-0.376877 2.74394 -2.67498e-19)
(-0.215991 2.38018 -6.18633e-19)
(0.0419508 2.34585 5.38306e-19)
(0.320291 2.35484 0)
(0.651663 2.42705 1.12748e-18)
(1.19088 2.39617 -1.40193e-18)
(2.04917 2.54116 0)
(2.68482 2.77686 0)
(2.98289 2.7633 0)
(3.09816 2.83697 8.07791e-19)
(3.13137 2.83983 -2.79581e-18)
(3.24247 2.82631 3.51171e-19)
(-0.345059 2.99775 1.77122e-19)
(-0.0947025 2.70827 0)
(0.33378 2.7442 0)
(0.855449 2.77451 -3.63331e-18)
(1.54289 2.88268 1.32541e-18)
(2.2444 3.01515 -2.05049e-18)
(2.71241 3.03586 1.78531e-18)
(2.983 3.0002 0)
(3.13589 2.87299 0)
(3.20652 2.78288 -1.0232e-18)
(3.2609 2.69711 -1.09293e-18)
(3.33761 2.61215 3.8163e-18)
(-0.293064 3.32117 -1.33148e-18)
(0.112816 3.12732 -2.2374e-18)
(0.698238 3.22922 1.96343e-18)
(1.365 3.30203 -1.771e-18)
(2.01189 3.36054 3.60914e-18)
(2.49981 3.32299 -3.6153e-18)
(2.78564 3.20378 -2.15916e-18)
(2.94845 3.07054 -6.699e-18)
(3.05869 2.91842 -3.0179e-19)
(3.11748 2.8037 3.50205e-18)
(3.169 2.69933 3.90751e-18)
(3.22774 2.59856 -3.11226e-18)
(-0.0752228 3.53212 0)
(0.385555 3.49246 1.23928e-18)
(0.997509 3.60037 -2.77342e-18)
(1.63292 3.63161 3.22746e-18)
(2.16573 3.5762 6.00845e-19)
(2.50947 3.43728 2.15696e-18)
(2.71255 3.2687 2.43227e-18)
(2.84126 3.10139 2.36246e-18)
(2.92898 2.93842 -4.92086e-18)
(2.99101 2.79644 4.17063e-18)
(3.04831 2.66936 -5.64484e-18)
(3.10702 2.55079 7.48014e-18)
(0.137086 3.71949 -4.64174e-18)
(0.627278 3.7766 1.75227e-18)
(1.19392 3.85465 5.05252e-18)
(1.74078 3.81824 0)
(2.15736 3.68606 -7.24814e-18)
(2.42258 3.50246 7.57718e-18)
(2.59245 3.30749 0)
(2.71065 3.11924 -5.67885e-18)
(2.79951 2.94201 4.83331e-18)
(2.86947 2.78335 0)
(2.93302 2.64086 2.77553e-19)
(2.9948 2.51012 4.40122e-18)
(0.345039 3.88487 0)
(0.815582 4.02917 -4.07742e-18)
(1.30629 4.05254 3.7192e-18)
(1.74925 3.9598 0)
(2.0785 3.78057 -4.38131e-18)
(2.30127 3.56732 7.00913e-19)
(2.45778 3.35059 6.17745e-18)
(2.57574 3.14414 5.69526e-18)
(2.67 2.95231 -5.01069e-18)
(2.74867 2.77854 4.969e-18)
(2.81955 2.62158 -4.30143e-18)
(2.88645 2.47848 -1.2066e-17)
(0.541863 4.06957 0)
(0.949543 4.27702 3.40971e-18)
(1.34575 4.23283 -4.95472e-18)
(1.69431 4.09627 4.93529e-18)
(1.96427 3.88247 0)
(2.16499 3.64298 -6.37133e-18)
(2.31841 3.40441 6.27677e-18)
(2.44122 3.1786 1.23416e-19)
(2.54322 2.96966 -1.04595e-17)
(2.63049 2.77962 -4.9057e-18)
(2.70837 2.60768 -2.74611e-19)
(2.78024 2.45159 8.83514e-18)
(0.695958 4.24128 0)
(1.03357 4.51416 -3.88317e-18)
(1.32639 4.39407 -5.43237e-18)
(1.59634 4.2149 -3.8813e-18)
(1.82465 3.97129 7.85132e-18)
(2.01289 3.70811 0)
(2.16826 3.44913 0)
(2.29857 3.20496 0)
(2.40962 2.97958 0)
(2.50576 2.77449 4.94369e-18)
(2.59074 2.589 -4.98023e-18)
(2.6677 2.42108 4.77063e-18)
(0.822942 4.50474 0)
(1.02621 4.71662 2.70748e-18)
(1.22015 4.49192 -6.16955e-19)
(1.44017 4.25377 4.4603e-18)
(1.64389 3.98288 4.44385e-18)
(1.82697 3.70367 -7.13251e-18)
(1.98856 3.4342 0)
(2.12973 3.18188 -2.17755e-19)
(2.2527 2.94951 -1.77106e-17)
(2.36 2.73782 0)
(2.45413 2.54601 1.1039e-17)
(2.53796 2.37217 -5.17235e-18)
(0.972955 4.56683 0)
(0.935429 4.68984 3.1419e-18)
(1.02304 4.37881 9.23507e-18)
(1.2073 4.08472 -7.88963e-18)
(1.4004 3.81196 -1.10586e-17)
(1.58866 3.54595 1.75125e-17)
(1.76348 3.29405 -1.99044e-19)
(1.92103 3.05871 -6.88193e-18)
(2.06041 2.84049 5.62925e-18)
(2.18272 2.63974 -1.19993e-17)
(2.28936 2.45608 -1.6649e-17)
(2.38308 2.28787 1.68531e-17)
(0.39894 4.18548 -1.86155e-18)
(0.564774 4.11275 -1.23164e-17)
(0.692639 3.81206 2.37333e-18)
(0.888058 3.56505 0)
(1.10185 3.37078 0)
(1.31104 3.17867 3.63173e-19)
(1.50533 2.98976 1.86398e-17)
(1.68174 2.80636 1.15151e-17)
(1.83901 2.6298 0)
(1.97798 2.46229 1.08619e-17)
(2.09877 2.30487 0)
(2.2043 2.15701 4.97257e-19)
(3.67861 2.27581 1.65067e-19)
(3.90973 2.21966 -3.65163e-19)
(4.05424 2.11531 -3.30091e-19)
(4.14564 1.9718 -5.77064e-19)
(4.15169 1.81378 -2.88938e-19)
(4.10842 1.62532 0)
(3.97522 1.43562 0)
(3.77441 1.23522 8.03421e-19)
(3.48764 1.03101 -9.43399e-19)
(3.10803 0.789999 0)
(2.68283 0.379589 0)
(2.54025 -0.217229 -6.63085e-19)
(3.33282 2.80682 1.66709e-18)
(3.4347 2.74987 0)
(3.53216 2.65869 -8.9513e-19)
(3.62745 2.53058 5.06228e-19)
(3.70584 2.36916 2.95664e-19)
(3.745 2.20609 2.66516e-18)
(3.73862 2.04704 -4.34013e-18)
(3.68087 1.90098 6.77656e-19)
(3.56904 1.78802 0)
(3.32635 1.68255 0)
(3.05072 1.54268 0)
(3.19069 1.02914 7.28199e-19)
(3.40782 2.52607 1.55897e-18)
(3.48469 2.43513 -4.2686e-18)
(3.55705 2.33821 1.18838e-18)
(3.61884 2.23769 2.87223e-18)
(3.66077 2.13836 -2.91326e-18)
(3.67749 2.04367 0)
(3.66337 1.96467 0)
(3.6195 1.91155 -2.35597e-19)
(3.55339 1.88729 1.09757e-18)
(3.41694 1.87769 0)
(3.19927 1.86652 0)
(3.41145 1.74584 -4.6938e-19)
(3.28392 2.50195 3.44832e-19)
(3.34218 2.4063 4.24319e-18)
(3.39882 2.31044 2.9912e-18)
(3.45001 2.21588 -2.97636e-18)
(3.49087 2.1274 0)
(3.51732 2.05091 1.73144e-18)
(3.52578 1.99407 0)
(3.51914 1.96674 2.52006e-18)
(3.49439 1.9695 -7.70248e-19)
(3.42674 2.02546 0)
(3.24906 2.10826 -5.51291e-19)
(3.54702 2.15751 6.60541e-19)
(3.16499 2.43994 -3.04739e-18)
(3.2237 2.33486 0)
(3.28079 2.23511 0)
(3.33363 2.14252 0)
(3.37972 2.061 0)
(3.41768 1.99547 -3.13184e-18)
(3.44607 1.95447 -1.40598e-19)
(3.46433 1.94501 -1.40212e-18)
(3.47925 1.97588 0)
(3.47549 2.06301 -1.22326e-18)
(3.3604 2.20507 4.91811e-19)
(3.77277 2.4022 -1.69121e-19)
(3.05526 2.38963 -2.42544e-19)
(3.11534 2.27791 -7.22792e-18)
(3.17419 2.17464 3.40322e-18)
(3.23071 2.08125 3.11726e-21)
(3.28411 2.0009 2.2302e-19)
(3.33421 1.93807 4.85191e-18)
(3.38194 1.89897 -1.5472e-19)
(3.42941 1.89085 -5.40432e-18)
(3.47878 1.92448 -2.16815e-18)
(3.53251 2.01684 1.08713e-18)
(3.47847 2.20432 -1.34027e-18)
(3.93772 2.5232 -5.42176e-19)
(2.95081 2.34749 1.15256e-17)
(3.01379 2.22726 3.7706e-18)
(3.07568 2.11743 0)
(3.13669 2.019 0)
(3.19745 1.93437 2.1072e-19)
(3.25931 1.86724 -3.52155e-18)
(3.32469 1.82277 5.50561e-18)
(3.39724 1.80778 -1.29491e-19)
(3.48054 1.83319 1.85358e-18)
(3.58105 1.91849 0)
(3.60222 2.10513 -2.40908e-19)
(4.0972 2.50919 -7.9755e-20)
(2.84803 2.30944 -4.2374e-18)
(2.91342 2.17961 -3.90024e-18)
(2.97763 2.06148 4.18367e-18)
(3.04197 1.95543 -3.91215e-18)
(3.10818 1.86304 5.50285e-22)
(3.17888 1.78692 7.7343e-18)
(3.25808 1.73087 -3.54123e-18)
(3.35151 1.70071 1.99417e-18)
(3.46503 1.70661 0)
(3.61087 1.76938 1.19829e-18)
(3.70919 1.94152 6.10895e-19)
(4.20308 2.39072 -9.20755e-19)
(2.73876 2.26866 4.62683e-18)
(2.80614 2.12965 -4.48094e-18)
(2.87176 2.003 -4.18354e-18)
(2.93773 1.88833 -8.70606e-18)
(3.0067 1.78634 8.36333e-18)
(3.08226 1.69853 -8.00549e-18)
(3.1699 1.62681 0)
(3.27772 1.57527 -1.8935e-18)
(3.41479 1.55174 0)
(3.60043 1.5764 0)
(3.77885 1.71239 0)
(4.26116 2.13131 4.38902e-19)
(2.61349 2.21423 5.01463e-18)
(2.68344 2.06951 -1.0075e-17)
(2.75016 1.93678 9.81771e-18)
(2.81626 1.81497 9.41029e-18)
(2.88491 1.70391 4.53656e-18)
(2.96064 1.60395 0)
(3.05017 1.51486 0)
(3.16345 1.43814 4.37876e-18)
(3.31341 1.37748 0)
(3.52956 1.34968 -1.22283e-18)
(3.77023 1.41086 7.96401e-19)
(4.2479 1.72023 -1.27448e-18)
(2.46522 2.13371 -1.10579e-17)
(2.53903 1.99034 1.02025e-17)
(2.60701 1.857 -9.96468e-18)
(2.67197 1.73209 -2.50128e-17)
(2.73727 1.61499 -2.47587e-19)
(2.80784 1.50512 1.34915e-19)
(2.89183 1.39994 -4.77352e-18)
(2.99944 1.2977 -4.35299e-18)
(3.14759 1.19581 0)
(3.37416 1.10557 3.67066e-18)
(3.64813 1.03835 8.98492e-19)
(4.1177 1.02278 -1.79013e-18)
(2.29417 2.01871 -4.93479e-19)
(2.37218 1.88578 0)
(2.4406 1.75924 0)
(2.50209 1.63713 4.7828e-18)
(2.56054 1.5189 1.45838e-17)
(2.62059 1.4036 -4.7596e-18)
(2.69154 1.28707 -2.19518e-19)
(2.7816 1.16439 -2.44147e-18)
(2.9098 1.02534 -2.26595e-18)
(3.10396 0.871258 -2.27782e-18)
(3.38751 0.646641 0)
(3.71813 -0.0356134 2.34095e-18)
(2.21861 -0.287211 -3.93573e-24)
(1.93437 -0.309109 0)
(1.76518 -0.391724 -1.43032e-19)
(1.65976 -0.50431 0)
(1.58519 -0.620317 -6.04036e-19)
(1.54586 -0.750947 7.64235e-19)
(1.66921 -0.89615 0)
(1.69395 -1.30034 6.68769e-19)
(1.45159 -2.26747 -2.43402e-19)
(1.79305 -2.93497 -1.12998e-19)
(2.11503 -3.12982 -8.11041e-19)
(2.24449 -3.43651 -7.32961e-19)
(2.74415 0.377141 -3.38912e-19)
(2.38011 0.21614 -1.90774e-19)
(2.34583 -0.0418458 6.25581e-19)
(2.35478 -0.320237 0)
(2.42695 -0.651564 -1.1264e-18)
(2.39615 -1.19057 6.14256e-19)
(2.54091 -2.04885 0)
(2.7768 -2.68481 9.10681e-19)
(2.76324 -2.98301 -2.57865e-18)
(2.8369 -3.09834 2.02017e-18)
(2.83981 -3.13149 1.5055e-18)
(2.82627 -3.24257 -3.77194e-18)
(2.99786 0.345385 -1.77008e-19)
(2.7083 0.0949403 0)
(2.74425 -0.333618 -1.72026e-18)
(2.77451 -0.855263 0)
(2.88258 -1.54263 0)
(3.01512 -2.24426 -8.20837e-19)
(3.03584 -2.71243 4.06423e-18)
(3.00025 -2.98311 -2.86951e-18)
(2.87302 -3.13602 9.95442e-19)
(2.78288 -3.20669 0)
(2.69711 -3.26103 2.67365e-18)
(2.61214 -3.33773 -1.62123e-18)
(3.32122 0.293283 8.61319e-19)
(3.12738 -0.112554 1.30589e-18)
(3.22928 -0.697995 1.4387e-18)
(3.30205 -1.36479 2.68091e-18)
(3.36057 -2.01177 -1.66479e-18)
(3.32308 -2.49985 -1.22474e-18)
(3.20386 -2.78575 0)
(3.07063 -2.94858 0)
(2.91847 -3.05883 2.20054e-18)
(2.80373 -3.11763 0)
(2.69935 -3.16912 4.83425e-19)
(2.59858 -3.22784 1.35564e-18)
(3.53221 0.0753937 1.34817e-18)
(3.49252 -0.38531 -9.94205e-19)
(3.60045 -0.997305 -2.77413e-18)
(3.63172 -1.63281 0)
(3.57634 -2.16573 0)
(3.43743 -2.50955 3.02172e-18)
(3.26881 -2.71266 0)
(3.10149 -2.84138 -5.65194e-18)
(2.9385 -2.92909 -2.35626e-18)
(2.79649 -2.99112 4.1714e-18)
(2.6694 -3.0484 -5.64585e-18)
(2.55082 -3.1071 3.55063e-18)
(3.71957 -0.136954 -2.61059e-18)
(3.77667 -0.627105 -1.50387e-18)
(3.85475 -1.1938 2.16348e-18)
(3.81839 -1.74074 3.81779e-19)
(3.68622 -2.15739 3.6537e-18)
(3.5026 -2.42264 -7.26258e-18)
(3.30762 -2.59253 6.59349e-18)
(3.11934 -2.71074 6.59242e-19)
(2.94209 -2.7996 0)
(2.78341 -2.86955 0)
(2.6409 -2.93309 8.56312e-18)
(2.51015 -2.99485 5.64717e-20)
(3.88492 -0.344986 -3.36301e-20)
(4.02924 -0.815494 -2.25414e-18)
(4.05265 -1.30623 0)
(3.95995 -1.74924 -4.41265e-18)
(3.78071 -2.07853 4.66355e-18)
(3.56745 -2.30132 1.11653e-17)
(3.3507 -2.45784 6.82218e-18)
(3.14423 -2.5758 8.62302e-19)
(2.95238 -2.67006 -1.05608e-17)
(2.77859 -2.74872 4.62242e-18)
(2.62162 -2.81959 4.94224e-18)
(2.47851 -2.88648 2.65242e-19)
(4.06961 -0.541841 2.18845e-19)
(4.27709 -0.949511 3.41009e-18)
(4.23293 -1.34572 0)
(4.09638 -1.69431 -4.93585e-18)
(3.88259 -1.96429 -3.5894e-18)
(3.64308 -2.16502 6.36552e-19)
(3.4045 -2.31845 -1.1864e-17)
(3.17867 -2.44125 4.21983e-19)
(2.96971 -2.54325 -2.71336e-19)
(2.77966 -2.63052 5.1566e-18)
(2.60772 -2.70839 -4.16317e-18)
(2.45162 -2.78025 2.20653e-19)
(4.24131 -0.695992 -3.48686e-18)
(4.51421 -1.03357 1.55522e-18)
(4.39413 -1.32639 -7.90744e-18)
(4.21497 -1.59634 3.88142e-18)
(3.97136 -1.82466 0)
(3.70818 -2.01291 0)
(3.44918 -2.16827 6.51429e-18)
(3.205 -2.29858 1.18884e-17)
(2.97962 -2.40963 -5.42969e-18)
(2.77452 -2.50576 -4.94404e-18)
(2.58901 -2.59074 -4.7402e-18)
(2.4211 -2.66768 0)
(4.50475 -0.822986 7.31224e-20)
(4.71662 -1.02621 4.11695e-18)
(4.49193 -1.22014 9.33797e-18)
(4.25378 -1.44017 0)
(3.9829 -1.64388 7.75758e-18)
(3.70368 -1.82696 0)
(3.43422 -1.98855 3.37889e-19)
(3.18188 -2.12972 -5.73149e-18)
(2.94951 -2.25269 6.20561e-18)
(2.73782 -2.35998 0)
(2.54601 -2.4541 0)
(2.37217 -2.53792 -1.06751e-17)
(4.5668 -0.973006 -6.59915e-18)
(4.68981 -0.935435 3.14185e-18)
(4.37877 -1.02303 5.26009e-19)
(4.08468 -1.20728 -8.7018e-18)
(3.81192 -1.40037 -3.42005e-18)
(3.54592 -1.58864 -3.50123e-18)
(3.29401 -1.76344 -6.8208e-18)
(3.05868 -1.92099 -1.92533e-17)
(2.84045 -2.06036 -5.62906e-18)
(2.63971 -2.18267 -1.19989e-17)
(2.45605 -2.2893 1.16417e-17)
(2.28784 -2.38302 1.06975e-17)
(4.18544 -0.398952 3.5631e-18)
(4.11268 -0.564759 -1.41193e-18)
(3.81198 -0.692623 3.55877e-19)
(3.56497 -0.888034 7.39834e-18)
(3.3707 -1.10182 0)
(3.17859 -1.31101 -6.69931e-18)
(2.98969 -1.50529 6.00179e-18)
(2.8063 -1.68169 5.34569e-18)
(2.62974 -1.83896 -1.74127e-17)
(2.46223 -1.97791 1.08613e-17)
(2.30483 -2.0987 -1.06377e-17)
(2.15697 -2.20422 0)
(2.27578 -3.67861 -4.25867e-19)
(2.21955 -3.90974 1.03375e-18)
(2.11531 -4.05429 -9.57268e-19)
(1.97175 -4.14568 -2.59525e-19)
(1.8138 -4.15174 -1.10216e-19)
(1.62531 -4.10846 7.97274e-20)
(1.43565 -3.97527 -1.27081e-19)
(1.23523 -3.77445 -3.20066e-19)
(1.03103 -3.48768 -9.43414e-19)
(0.790021 -3.10805 0)
(0.379626 -2.68286 0)
(-0.217179 -2.54028 -6.63075e-19)
(2.80678 -3.33292 -6.05939e-20)
(2.74985 -3.43478 2.16252e-18)
(2.6587 -3.53222 -8.9511e-19)
(2.5306 -3.62751 0)
(2.36918 -3.70589 1.73589e-18)
(2.20612 -3.74505 0)
(2.04706 -3.73866 1.29967e-18)
(1.90101 -3.68091 2.24041e-18)
(1.78805 -3.56907 -1.9062e-18)
(1.68259 -3.32637 0)
(1.54273 -3.05074 0)
(1.0292 -3.19071 -2.96666e-20)
(2.52607 -3.40792 1.12145e-18)
(2.43512 -3.48478 -1.05747e-18)
(2.33821 -3.55712 1.18853e-18)
(2.2377 -3.6189 0)
(2.13838 -3.66082 -1.2809e-18)
(2.0437 -3.67752 3.22899e-18)
(1.9647 -3.6634 -4.6677e-18)
(1.91159 -3.61952 -5.20226e-18)
(1.88734 -3.55341 3.08521e-18)
(1.87774 -3.41695 0)
(1.86658 -3.19928 6.12025e-19)
(1.74591 -3.41146 1.52289e-19)
(2.50196 -3.28401 1.30239e-18)
(2.40631 -3.34225 -2.95587e-18)
(2.31045 -3.39887 2.99159e-18)
(2.21591 -3.45005 -2.97673e-18)
(2.12742 -3.4909 0)
(2.05094 -3.51734 1.73158e-18)
(1.9941 -3.52579 1.17878e-18)
(1.96678 -3.51915 6.94184e-19)
(1.96955 -3.49439 -1.56374e-18)
(2.02552 -3.42675 0)
(2.10832 -3.24907 -3.55041e-19)
(2.15759 -3.54703 5.92223e-19)
(2.43996 -3.16505 3.41391e-18)
(2.33488 -3.22375 -1.76718e-18)
(2.23513 -3.28082 0)
(2.14255 -3.33365 0)
(2.06102 -3.37973 1.70275e-18)
(1.9955 -3.41768 -1.43182e-18)
(1.9545 -3.44608 -2.55459e-19)
(1.94505 -3.46433 0)
(1.97593 -3.47925 -8.32371e-19)
(2.06306 -3.47549 1.22321e-18)
(2.20514 -3.3604 -1.07683e-18)
(2.40229 -3.77278 -2.72513e-19)
(2.38966 -3.0553 -7.2846e-18)
(2.27793 -3.11537 3.48579e-18)
(2.17466 -3.1742 7.03502e-18)
(2.08128 -3.23072 3.1183e-21)
(2.00093 -3.28411 -8.37857e-18)
(1.9381 -3.3342 -3.55403e-18)
(1.89901 -3.38193 -2.44331e-19)
(1.89089 -3.4294 0)
(1.92452 -3.47878 0)
(2.0169 -3.53251 -1.08713e-18)
(2.20439 -3.47847 -7.80043e-19)
(2.52329 -3.93772 2.37847e-19)
(2.34752 -2.95083 3.93845e-18)
(2.22728 -3.0138 -7.76868e-18)
(2.11746 -3.07568 -3.45024e-18)
(2.01902 -3.13668 -1.99812e-19)
(1.9344 -3.19744 3.32033e-18)
(1.86727 -3.25929 3.28432e-18)
(1.8228 -3.32467 1.85619e-18)
(1.80781 -3.39722 1.81023e-18)
(1.83323 -3.48052 -2.01057e-18)
(1.91855 -3.58103 0)
(2.1052 -3.60222 1.25402e-18)
(2.50928 -4.0972 -3.61154e-19)
(2.30946 -2.84803 0)
(2.17963 -2.91341 3.9007e-18)
(2.0615 -2.97762 0)
(1.95545 -3.04194 -1.99583e-19)
(1.86306 -3.10815 5.5041e-22)
(1.78695 -3.17885 7.73496e-18)
(1.7309 -3.25805 -7.47222e-18)
(1.70074 -3.35148 0)
(1.70665 -3.465 -2.13378e-18)
(1.76942 -3.61085 1.19831e-18)
(1.94158 -3.70918 -2.33584e-18)
(2.3908 -4.20307 1.17568e-18)
(2.26868 -2.73873 4.62725e-18)
(2.12966 -2.80611 -4.48136e-18)
(2.00301 -2.87172 -4.5362e-18)
(1.88834 -2.93769 4.43284e-18)
(1.78636 -3.00665 4.18536e-18)
(1.69855 -3.08221 -1.2263e-17)
(1.62684 -3.16985 3.83039e-18)
(1.5753 -3.27768 0)
(1.55177 -3.41474 1.95103e-18)
(1.57643 -3.60039 0)
(1.71245 -3.77883 2.85115e-18)
(2.13139 -4.26115 -2.08607e-18)
(2.21422 -2.61344 0)
(2.06951 -2.68339 -1.00756e-17)
(1.93678 -2.75011 -5.23008e-18)
(1.81498 -2.8162 -9.1293e-18)
(1.70392 -2.88484 4.53681e-18)
(1.60396 -2.96057 4.27954e-18)
(1.51487 -3.05011 0)
(1.43815 -3.16339 0)
(1.3775 -3.31336 0)
(1.34971 -3.52952 0)
(1.4109 -3.7702 -7.98506e-19)
(1.72028 -4.24788 -1.03984e-19)
(2.13369 -2.46516 5.38846e-18)
(1.99032 -2.53896 4.94264e-18)
(1.85699 -2.60693 2.05076e-17)
(1.73209 -2.6719 5.2636e-18)
(1.61499 -2.73719 1.97723e-17)
(1.50512 -2.80776 -4.76166e-18)
(1.39995 -2.89175 -4.77358e-18)
(1.29771 -2.99937 0)
(1.19582 -3.14752 -4.53566e-18)
(1.10559 -3.3741 -2.44117e-18)
(1.03837 -3.64808 -1.84149e-18)
(1.02281 -4.11766 -1.11217e-25)
(2.01867 -2.29409 0)
(1.88576 -2.3721 0)
(1.75922 -2.44051 -2.04462e-17)
(1.63712 -2.50201 -1.48798e-17)
(1.51889 -2.56046 -4.70396e-18)
(1.4036 -2.6205 0)
(1.28708 -2.69146 4.73176e-18)
(1.1644 -2.78151 0)
(1.02535 -2.90972 -1.98023e-19)
(0.871261 -3.10389 2.27773e-18)
(0.646646 -3.38745 6.64316e-19)
(-0.0356182 -3.71809 4.6349e-18)
(-0.287268 -2.21862 1.16431e-19)
(-0.309177 -1.9344 1.86466e-19)
(-0.391819 -1.76523 -1.69112e-19)
(-0.504415 -1.65991 5.43739e-21)
(-0.620481 -1.58525 0)
(-0.751075 -1.54612 4.95797e-20)
(-0.896652 -1.66979 0)
(-1.3017 -1.69351 5.00304e-19)
(-2.26927 -1.4522 1.16831e-18)
(-2.93492 -1.79452 1.27698e-20)
(-3.12976 -2.11558 6.09226e-19)
(-3.43647 -2.24525 8.19572e-19)
(0.37704 -2.74418 4.47937e-19)
(0.215982 -2.38022 -6.18767e-19)
(-0.0420105 -2.34609 5.82389e-19)
(-0.320437 -2.35521 -9.006e-21)
(-0.652086 -2.42744 -1.12801e-18)
(-1.19196 -2.39633 -2.08937e-19)
(-2.05014 -2.54197 -1.046e-18)
(-2.68497 -2.77723 -1.51245e-18)
(-2.98268 -2.76366 2.40534e-18)
(-3.09777 -2.8373 -6.06796e-19)
(-3.13111 -2.84003 7.5636e-19)
(-3.24229 -2.82647 4.57044e-19)
(0.345145 -2.99793 -3.54254e-19)
(0.0945391 -2.70849 0)
(-0.334123 -2.74456 0)
(-0.856178 -2.77495 -1.54086e-18)
(-1.54393 -2.88337 0)
(-2.24493 -3.0157 -1.22919e-18)
(-2.7124 -3.03628 6.85017e-19)
(-2.98272 -3.00038 2.50017e-18)
(-3.13555 -2.87317 -1.24453e-18)
(-3.20613 -2.78308 -1.82144e-18)
(-3.26059 -2.69728 -3.76719e-18)
(-3.33734 -2.61229 3.81676e-18)
(0.292769 -3.3212 -1.72397e-18)
(-0.113354 -3.1276 -1.30745e-18)
(-0.698979 -3.22961 2.53668e-18)
(-1.36578 -3.30255 9.09147e-19)
(-2.0123 -3.36098 0)
(-2.49968 -3.3232 -4.45274e-18)
(-2.78528 -3.20396 3.31254e-18)
(-2.94804 -3.07065 0)
(-3.05827 -2.91856 3.27944e-18)
(-3.11708 -2.80385 -5.02583e-18)
(-3.16868 -2.69946 3.42336e-18)
(-3.22746 -2.59867 4.67989e-19)
(0.0747947 -3.53206 2.04951e-18)
(-0.386208 -3.49264 3.03546e-18)
(-0.998149 -3.60058 9.11757e-19)
(-1.6333 -3.63178 0)
(-2.16567 -3.57625 -2.73213e-18)
(-2.5091 -3.4373 4.62981e-18)
(-2.71211 -3.26876 0)
(-2.84082 -3.10146 -3.08184e-18)
(-2.92858 -2.93852 -2.81679e-18)
(-2.99067 -2.79655 4.16926e-18)
(-3.04802 -2.66947 0)
(-3.10679 -2.55089 -3.21475e-18)
(-0.137668 -3.71927 2.03036e-18)
(-0.627898 -3.77663 7.09683e-19)
(-1.19438 -3.85461 -2.16217e-18)
(-1.74093 -3.81813 -8.90997e-18)
(-2.15717 -3.68593 -3.05445e-19)
(-2.42222 -3.50239 7.57633e-18)
(-2.59206 -3.3075 0)
(-2.71028 -3.11929 8.57649e-18)
(-2.79918 -2.9421 -5.00577e-18)
(-2.86918 -2.78346 4.38982e-18)
(-2.93279 -2.64097 2.77446e-19)
(-2.9946 -2.51022 -5.64288e-20)
(-0.345577 -3.88461 -1.85088e-18)
(-0.816074 -4.02908 -1.45239e-18)
(-1.3066 -4.05232 0)
(-1.7493 -3.95957 9.53364e-18)
(-2.07832 -3.78038 -1.31563e-17)
(-2.30098 -3.56722 -2.1713e-19)
(-2.45747 -3.35057 -1.29928e-17)
(-2.57544 -3.14418 5.30533e-19)
(-2.66974 -2.95239 -5.00896e-18)
(-2.74844 -2.77864 -4.9674e-18)
(-2.81935 -2.62169 4.94006e-18)
(-2.88629 -2.47858 -4.08873e-18)
(-0.542301 -4.06932 -1.66987e-19)
(-0.949917 -4.27685 -1.83994e-18)
(-1.34596 -4.23254 0)
(-1.69435 -4.09597 4.93328e-18)
(-1.96415 -3.88225 3.37171e-18)
(-2.16478 -3.64285 2.99581e-18)
(-2.31817 -3.40437 -5.11405e-19)
(-2.44098 -3.17862 -1.23343e-19)
(-2.54301 -2.96972 -5.60817e-18)
(-2.6303 -2.77971 -5.98119e-19)
(-2.70821 -2.60779 2.33608e-19)
(-2.7801 -2.45169 0)
(-0.696279 -4.24104 2.16974e-18)
(-1.03382 -4.51394 0)
(-1.32655 -4.39376 0)
(-1.59637 -4.21458 -3.88069e-18)
(-1.82457 -3.97103 3.43856e-18)
(-2.01274 -3.70794 -7.08405e-18)
(-2.16807 -3.44904 0)
(-2.29837 -3.20494 5.81878e-18)
(-2.40943 -2.97961 -2.4528e-19)
(-2.50559 -2.77455 4.94246e-18)
(-2.59059 -2.58907 -5.17239e-18)
(-2.66756 -2.42117 9.93948e-18)
(-0.823054 -4.5045 4.44316e-18)
(-1.02638 -4.71644 -1.40961e-18)
(-1.22026 -4.49164 -4.97761e-18)
(-1.4402 -4.25346 -8.56649e-18)
(-1.64383 -3.98261 0)
(-1.82685 -3.70346 6.45586e-18)
(-1.98841 -3.43406 -1.30709e-17)
(-2.12956 -3.1818 5.8024e-18)
(-2.25253 -2.94948 6.20409e-18)
(-2.35983 -2.73783 0)
(-2.45397 -2.54604 -5.90343e-18)
(-2.53782 -2.37222 -9.94709e-18)
(-0.973004 -4.56673 -6.54536e-18)
(-0.935537 -4.6897 1.42915e-18)
(-1.02311 -4.37858 4.35446e-18)
(-1.20731 -4.08445 3.68992e-18)
(-1.40036 -3.8117 -4.9953e-20)
(-1.58856 -3.54572 -1.08307e-17)
(-1.76334 -3.29386 1.29465e-17)
(-1.92087 -3.05858 2.53126e-17)
(-2.06023 -2.8404 -1.77063e-17)
(-2.18255 -2.63969 -1.19967e-17)
(-2.28919 -2.45606 1.09758e-17)
(-2.38292 -2.28787 0)
(-0.398896 -4.18539 5.50359e-18)
(-0.564782 -4.11265 1.86675e-18)
(-0.692659 -3.81189 2.01727e-18)
(-0.888056 -3.56483 7.95562e-18)
(-1.1018 -3.37054 0)
(-1.31095 -3.17844 6.33582e-18)
(-1.50521 -2.98956 -1.26361e-17)
(-1.68158 -2.8062 -5.59469e-18)
(-1.83885 -2.62967 -5.73029e-18)
(-1.97781 -2.4622 1.08604e-17)
(-2.09861 -2.30482 5.68282e-18)
(-2.20414 -2.15698 1.6316e-17)
(-3.67859 -2.2759 1.24389e-19)
(-3.90968 -2.21987 5.92265e-19)
(-4.05414 -2.11534 2.81745e-19)
(-4.14555 -1.97188 -6.56107e-19)
(-4.15157 -1.81376 1.78401e-19)
(-4.10831 -1.62533 0)
(-3.9751 -1.43557 -5.122e-19)
(-3.77432 -1.23519 3.88024e-19)
(-3.48755 -1.03096 0)
(-3.10798 -0.789963 1.15535e-19)
(-2.68281 -0.379558 0)
(-2.54023 0.21724 0)
(-3.33262 -2.80695 -4.25911e-18)
(-3.43455 -2.74994 3.03115e-18)
(-3.53203 -2.65871 2.29838e-18)
(-3.62734 -2.53056 -9.64718e-19)
(-3.70572 -2.36913 0)
(-3.74489 -2.20605 0)
(-3.73852 -2.04699 1.48524e-18)
(-3.68078 -1.90093 -1.60273e-18)
(-3.56896 -1.78795 0)
(-3.3263 -1.68248 6.08585e-19)
(-3.0507 -1.54262 -3.91611e-20)
(-3.19067 -1.02912 -1.10254e-18)
(-3.40759 -2.52619 1.61376e-18)
(-3.4845 -2.43522 -2.77712e-18)
(-3.55689 -2.33827 0)
(-3.6187 -2.23772 -2.90218e-18)
(-3.66064 -2.13837 -2.98539e-18)
(-3.67738 -2.04365 6.38544e-18)
(-3.66328 -1.96463 -5.69881e-18)
(-3.61943 -1.9115 0)
(-3.55334 -1.88723 0)
(-3.4169 -1.87761 0)
(-3.19925 -1.86644 -5.35205e-19)
(-3.41141 -1.74575 1.64829e-19)
(-3.2837 -2.50204 -1.30194e-18)
(-3.34199 -2.40637 -3.90482e-19)
(-3.39867 -2.31048 0)
(-3.44989 -2.2159 -3.68671e-19)
(-3.49077 -2.12739 0)
(-3.51724 -2.05088 0)
(-3.52571 -1.99402 1.33902e-18)
(-3.51909 -1.96668 -1.60414e-18)
(-3.49434 -1.96943 1.72268e-18)
(-3.4267 -2.02537 0)
(-3.24905 -2.10816 -5.51352e-19)
(-3.54699 -2.15742 -6.6066e-19)
(-3.1648 -2.44003 7.11081e-18)
(-3.22355 -2.33492 -1.76651e-18)
(-3.28067 -2.23516 3.17525e-18)
(-3.33353 -2.14255 1.4294e-18)
(-3.37964 -2.061 -4.84076e-18)
(-3.41761 -1.99545 0)
(-3.44602 -1.95442 -1.64419e-18)
(-3.46429 -1.94495 0)
(-3.47921 -1.9758 0)
(-3.47547 -2.06291 1.22328e-18)
(-3.3604 -2.20496 3.14342e-20)
(-3.77273 -2.40209 7.41755e-19)
(-3.0551 -2.38973 -3.39614e-18)
(-3.11521 -2.27798 -2.57281e-19)
(-3.17408 -2.17469 0)
(-3.23063 -2.08128 0)
(-3.28404 -2.00091 -5.3028e-18)
(-3.33415 -1.93805 3.33263e-18)
(-3.38189 -1.89893 3.39842e-18)
(-3.42937 -1.89078 1.7722e-18)
(-3.47876 -1.92439 -4.20508e-18)
(-3.53249 -2.01674 -1.08713e-18)
(-3.47847 -2.20421 0)
(-3.93769 -2.52309 8.46622e-19)
(-2.95068 -2.34759 -8.08654e-18)
(-3.01369 -2.22734 3.32478e-18)
(-3.07559 -2.11749 3.67736e-18)
(-3.13662 -2.01904 2.01428e-19)
(-3.19739 -1.93439 -4.13445e-19)
(-3.25926 -1.86723 -3.71624e-18)
(-3.32465 -1.82273 -5.40273e-18)
(-3.39721 -1.80771 -1.94126e-18)
(-3.48051 -1.8331 1.85333e-18)
(-3.58103 -1.91839 0)
(-3.60222 -2.10502 2.12035e-18)
(-4.09717 -2.50906 -5.41027e-19)
(-2.84791 -2.30953 8.28144e-18)
(-2.91332 -2.17969 -4.50346e-18)
(-2.97755 -2.06155 -4.18274e-18)
(-3.04191 -1.95547 -7.6231e-18)
(-3.10813 -1.86306 7.47518e-18)
(-3.17884 -1.78692 -1.93723e-19)
(-3.25805 -1.73084 1.12173e-17)
(-3.35148 -1.70065 1.78448e-18)
(-3.46501 -1.70653 2.13336e-18)
(-3.61085 -1.76927 0)
(-3.70919 -1.94141 -1.45293e-18)
(-4.20306 -2.39059 -6.94962e-19)
(-2.73864 -2.26875 0)
(-2.80604 -2.12973 4.29205e-18)
(-2.87168 -2.00306 4.18261e-18)
(-2.93767 -1.88838 -4.27266e-18)
(-3.00664 -1.78637 -1.63497e-19)
(-3.08222 -1.69853 -4.2557e-18)
(-3.16987 -1.62679 -3.82934e-18)
(-3.2777 -1.57522 0)
(-3.41477 -1.55166 -1.95064e-18)
(-3.60041 -1.57629 -1.2109e-18)
(-3.77885 -1.71228 4.66494e-18)
(-4.26114 -2.13118 -9.99084e-19)
(-2.61336 -2.21428 0)
(-2.68333 -2.06956 0)
(-2.75008 -1.93683 0)
(-2.81619 -1.81501 -1.42298e-17)
(-2.88485 -1.70393 9.04654e-18)
(-2.96059 -1.60395 8.71395e-18)
(-3.05014 -1.51484 0)
(-3.16343 -1.43808 -4.37773e-18)
(-3.3134 -1.3774 0)
(-3.52955 -1.34958 -2.49763e-18)
(-3.77023 -1.41075 -7.98448e-19)
(-4.24789 -1.72009 -1.27459e-18)
(-2.46509 -2.13373 0)
(-2.53892 -1.99037 0)
(-2.60691 -1.85703 1.05401e-17)
(-2.6719 -1.73212 1.47298e-17)
(-2.73721 -1.61501 4.06775e-19)
(-2.8078 -1.50512 4.89529e-18)
(-2.8918 -1.39992 -2.3389e-18)
(-2.99942 -1.29765 6.59025e-18)
(-3.14758 -1.19573 4.5346e-18)
(-3.37416 -1.10547 2.27852e-18)
(-3.64812 -1.03823 -1.84133e-18)
(-4.11769 -1.02265 -1.9612e-18)
(-2.29403 -2.0187 0)
(-2.37206 -1.88579 0)
(-2.4405 -1.75925 -9.98285e-18)
(-2.50202 -1.63714 5.25156e-18)
(-2.56049 -1.5189 -4.70342e-18)
(-2.62055 -1.4036 -4.75894e-18)
(-2.69152 -1.28705 4.95066e-18)
(-2.78159 -1.16434 0)
(-2.90981 -1.02527 -4.45299e-18)
(-3.10397 -0.871161 -2.3692e-18)
(-3.38752 -0.646524 2.28003e-18)
(-3.71814 0.0357284 -4.65464e-18)
(-2.21861 0.2872 1.16371e-19)
(-1.93437 0.3091 0)
(-1.76517 0.39172 0)
(-1.65977 0.504312 5.75051e-19)
(-1.58519 0.620327 -6.14993e-19)
(-1.5459 0.750947 0)
(-1.66932 0.896231 0)
(-1.69386 1.30063 4.9982e-19)
(-1.45171 2.26793 1.28154e-18)
(-1.79344 2.93506 1.08812e-18)
(-2.11521 3.12988 -2.01545e-19)
(-2.24474 3.4366 7.39033e-19)
(-2.74416 -0.377146 -6.21152e-19)
(-2.38012 -0.216131 0)
(-2.34585 0.0418666 0)
(-2.35482 0.320279 -9.70047e-19)
(-2.427 0.651665 2.29246e-18)
(-2.39618 1.19084 -2.48589e-18)
(-2.54112 2.04914 8.86775e-19)
(-2.77689 2.68493 8.10846e-19)
(-2.76334 2.98305 -3.28238e-19)
(-2.83701 3.09832 8.0783e-19)
(-2.8399 3.1315 0)
(-2.82638 3.24259 -1.71407e-18)
(-2.99787 -0.345382 3.53984e-19)
(-2.70831 -0.0949098 0)
(-2.74427 0.333683 0)
(-2.77455 0.855396 -9.07735e-19)
(-2.88267 1.54283 6.74459e-19)
(-3.01517 2.24443 -1.55403e-18)
(-3.0359 2.71255 0)
(-3.00027 2.98317 -3.29284e-18)
(-2.87306 3.13605 3.94754e-18)
(-2.78295 3.20668 -1.02307e-18)
(-2.69718 3.26103 -2.6514e-18)
(-2.61222 3.33773 3.81598e-18)
(-3.32122 -0.293267 -8.61305e-19)
(-3.12738 0.112606 1.30592e-18)
(-3.22929 0.698089 0)
(-3.30207 1.36492 9.09584e-19)
(-3.36059 2.01192 -6.44149e-19)
(-3.32308 2.49996 1.2247e-18)
(-3.20387 2.78582 0)
(-3.07064 2.94861 -2.4166e-18)
(-2.9185 3.05884 -5.47911e-18)
(-2.80379 3.11762 3.50218e-18)
(-2.69941 3.16912 3.42435e-18)
(-2.59864 3.22784 -6.69303e-18)
(-3.53221 -0.0753776 1.02349e-18)
(-3.49252 0.385365 -1.2393e-18)
(-3.60044 0.997398 2.77376e-18)
(-3.6317 1.63293 0)
(-3.57632 2.16585 -5.77916e-18)
(-3.43741 2.50964 5.49143e-18)
(-3.2688 2.71271 3.27412e-18)
(-3.10149 2.84141 2.36256e-18)
(-2.93851 2.92911 0)
(-2.79652 2.99112 0)
(-2.66944 3.0484 0)
(-2.55087 3.1071 -7.14617e-19)
(-3.71956 0.136974 5.22108e-18)
(-3.77666 0.627156 0)
(-3.85473 1.19389 -2.16325e-18)
(-3.81836 1.74085 4.64463e-18)
(-3.68618 2.1575 3.61383e-18)
(-3.50257 2.42272 -7.22622e-18)
(-3.30759 2.59258 3.37157e-18)
(-3.11933 2.71076 -1.17635e-17)
(-2.94209 2.79961 -1.74361e-19)
(-2.78343 2.86955 -4.25451e-19)
(-2.64093 2.93309 2.77584e-19)
(-2.51019 2.99485 1.14675e-17)
(-3.88491 0.345 -6.62953e-18)
(-4.02922 0.815539 4.07804e-18)
(-4.05263 1.30631 -6.20092e-18)
(-3.95991 1.74935 -4.41233e-18)
(-3.78067 2.07863 -8.20142e-18)
(-3.5674 2.30139 -4.35724e-18)
(-3.35066 2.45789 -6.43626e-18)
(-3.1442 2.57583 1.06823e-17)
(-2.95237 2.67007 0)
(-2.77859 2.74872 9.30898e-18)
(-2.62163 2.81958 -1.30648e-17)
(-2.47853 2.88647 4.37557e-18)
(-4.0696 0.541854 -3.15471e-18)
(-4.27707 0.949553 -5.40422e-18)
(-4.23291 1.3458 7.62325e-18)
(-4.09634 1.6944 0)
(-3.88253 1.96438 -4.21076e-18)
(-3.64302 2.16508 6.3718e-18)
(-3.40445 2.31849 -3.18438e-19)
(-3.17863 2.44128 1.23414e-19)
(-2.96969 2.54326 -5.18747e-18)
(-2.77965 2.63051 -9.77292e-18)
(-2.60771 2.70838 4.37635e-18)
(-2.45163 2.78023 -4.43196e-18)
(-4.24131 0.695996 2.17031e-18)
(-4.5142 1.03361 0)
(-4.39411 1.32645 0)
(-4.21494 1.59641 0)
(-3.97131 1.82473 3.43929e-18)
(-3.70812 2.01296 0)
(-3.44913 2.16831 -4.08754e-19)
(-3.20496 2.2986 1.15603e-17)
(-2.97958 2.40963 2.79086e-19)
(-2.77449 2.50576 4.9437e-18)
(-2.589 2.59072 -4.98024e-18)
(-2.4211 2.66766 1.47126e-17)
(-4.50475 0.823004 7.31192e-20)
(-4.71662 1.02625 7.48044e-18)
(-4.49192 1.22019 -2.29143e-18)
(-4.25376 1.44023 0)
(-3.98286 1.64394 0)
(-3.70364 1.82701 0)
(-3.43417 1.98859 0)
(-3.18184 2.12974 6.06438e-18)
(-2.94948 2.2527 -2.32339e-17)
(-2.73779 2.35997 -1.14621e-17)
(-2.54599 2.45408 1.10385e-17)
(-2.37216 2.53789 5.89734e-18)
(-4.56681 0.973003 -6.54506e-18)
(-4.68981 0.935462 -4.34336e-18)
(-4.37878 1.02308 -2.60049e-18)
(-4.08468 1.20734 0)
(-3.81192 1.40044 0)
(-3.54591 1.58869 7.27782e-18)
(-3.294 1.76349 -1.34414e-17)
(-3.05866 1.92103 2.55366e-17)
(-2.84044 2.06038 1.80515e-17)
(-2.6397 2.18268 1.12964e-17)
(-2.45605 2.28929 -1.0977e-17)
(-2.28785 2.383 6.35186e-19)
(-4.18547 0.398975 -1.86148e-18)
(-4.11273 0.564806 0)
(-3.81204 0.692685 3.86248e-18)
(-3.56504 0.888109 -1.18272e-17)