/*--------------------------------*- C++ -*----------------------------------*\
| =========                 |                                                 |
| \\      /  F ield         | OpenFOAM: The Open Source CFD Toolbox           |
|  \\    /   O peration     | Version:  4.0                                   |
|   \\  /    A nd           | Web:      www.OpenFOAM.org                      |
|    \\/     M anipulation  |                                                 |
\*---------------------------------------------------------------------------*/
FoamFile
{
    version     2.0;
    format      ascii;
    class       volScalarField;
    location    "9";
    object      p;
}
// * * * * * * * * * * * * * * * * * * * * * * * * * * * * * * * * * * * * * //

dimensions      [0 2 -2 0 0 0 0];

internalField   nonuniform List<scalar> 
146404
(
-56.4533
-21.6721
-183.573
-149.248
-103.268
-57.0965
-20.0764
-184.194
-162.953
-64.8652
-19.1768
-193.405
-159.238
-110.619
-58.1726
-20.9603
-111.45
-62.1552
-26.1409
-170.683
-146.098
-104.624
-53.1758
-18.9
-160.964
-141.947
-95.4411
-45.7881
-18.0742
-150.027
-130.479
-88.5474
-40.242
-8.89867
-162.629
-148.004
-99.2204
-49.9217
-8.7136
-172.436
-166.036
-65.197
-9.18492
-172.177
-168.546
-108.414
-38.9798
-7.78725
-173.57
-161.443
-101.467
-48.1947
-16.3852
-175.87
-153.415
-101.25
-59.4851
-12.8651
-186.203
-155.249
-111.103
-61.833
-18.665
-166.927
-53.4643
-10.8906
-162.542
-149.266
-102.53
-50.5299
-7.75388
-153.083
-138.477
-92.7421
-38.9455
-7.94271
-150.308
-141.19
-97.4742
-42.4745
-8.27962
-159.083
-155.088
-109.12
-51.4564
-10.0499
-164.564
-178.466
-68.2
-10.7222
-165.257
-171.627
-123.535
-41.0356
-8.57908
-156.462
-151.783
-105.917
-46.6246
-9.74875
-167.205
-159.631
-109.461
-54.2796
-9.10848
-174.732
-162.662
-114.755
-53.4907
-14.8291
-179.134
-157.927
-64.1322
-12.8871
-159.102
-111.026
-56.7389
-20.8573
-162.324
-141.296
-84.9235
-30.5617
-6.77843
-163.172
-152.748
-103.127
-42.7556
-8.34982
-160.288
-152.261
-122.734
-48.0268
-9.19541
-155.326
-160.638
-115.04
-51.396
-8.59333
-143.573
-163.574
-117.864
-43.3622
-9.68405
-148.683
-177.591
-124.576
-56.1357
-9.22435
-147.555
-169.233
-68.9861
-10.2167
-157.334
-180.539
-133.389
-59.0882
-9.54396
-156.215
-179.76
-127.781
-57.8084
-8.74971
-160.22
-174.425
-127.787
-60.1567
-10.0054
-168.259
-164.53
-135.959
-60.6177
-10.1453
-170.815
-156.282
-104.504
-50.6103
-8.04353
-171.061
-149.737
-98.0297
-49.876
-12.8991
-151.263
-103.79
-56.7866
-21.1765
-159.795
-140.241
-86.5764
-39.712
-15.577
-146.759
-128.74
-85.6778
-34.8791
-4.73712
-154.734
-150.566
-101.279
-44.2686
-7.95757
-148.39
-158.926
-118.603
-52.6677
-8.73025
-149.022
-179.791
-138.983
-59.2509
-15.3713
-190.222
-260.818
-136.934
-59.7339
-14.9141
-182.813
-323.273
-153.472
-64.7143
-15.4535
-169.959
-335.879
-71.8312
-15.5097
-191.771
-343.161
-163.404
-70.422
-17.4136
-174.619
-283.161
-143.394
-67.6112
-17.1925
-143.101
-188.422
-153.094
-66.3288
-9.30365
-155.773
-168.758
-136.657
-59.4566
-10.3172
-155.379
-140.708
-95.1734
-41.5204
-7.73514
-158.557
-134.492
-86.08
-39.8973
-8.19702
-169.179
-142.327
-91.9285
-46.1314
-11.1006
-170.419
-145.814
-97.1426
-47.5919
-18.1551
-153.276
-150.748
-97.8994
-30.2339
-5.31349
-143.935
-131.035
-90.6762
-38.6958
-7.55476
-141.589
-149.778
-94.5962
-37.3917
-8.8406
-149.12
-223.397
-123.076
-51.0213
-13.5118
-185.783
-308.651
-151.383
-60.4997
-12.4472
21.5865
190.203
-70.2876
-19.3209
111.808
190.658
199.283
213.592
119.183
186.693
196.99
234.222
171.751
96.2519
185.895
199.333
211.45
9.67214
175.371
-75.1441
-20.9435
-127.912
-73.8427
-16.1121
-139.143
-200.954
-136.973
-45.2494
-9.55686
-152.203
-145.574
-104.628
-46.3706
-10.1165
-160.616
-159.479
-109.473
-49.9123
-7.27416
-165.45
-156.536
-102.055
-49.7205
-16.0962
-177.419
-153.534
-110.215
-57.4496
-18.2679
-161.799
-151.167
-111.624
-49.0782
-12.2656
-155.753
-154.994
-109.85
-48.3299
-8.8073
-146.712
-153.739
-108.421
-48.8229
-9.27825
-140.08
-189.046
-117.965
-52.0047
-13.0386
-188.042
-323.049
-136.699
-60.2406
-16.35
94.2355
191.46
203.993
-18.6137
153.229
177.816
193.958
197.707
151.286
158.686
173.3
190.579
209.38
171.382
156.764
171.96
190.612
209.67
137.686
147.51
169.443
188.631
190.944
194.606
118.245
172.597
191.705
176.636
141.342
53.2913
183.237
197.485
218.133
-23.2176
-139.978
-387.083
-169.367
-61.666
-17.7394
-146.535
-184.12
-135.393
-60.1205
-10.2728
-161.45
-163.06
-120.49
-53.7183
-9.97321
-170.244
-162.238
-120.796
-58.4011
-9.39565
-176.435
-157.796
-121.137
-58.2131
-13.0299
-155.723
-142.134
-108.551
-53.0118
-8.25912
-151.458
-147.755
-116.071
-52.8827
-9.38648
-132.879
-58.4548
-9.22264
-167.243
-228.6
-142.278
-58.579
-13.7226
21.7527
-146.409
-65.2646
-21.9404
155.419
180.223
197.251
172.49
139.554
163.511
174.53
194.86
142.463
161.884
163.233
170.235
191.628
191.737
215.436
164.062
168.78
183.968
195.242
154.533
157.983
166.127
186.72
207.795
246.407
146.809
166.748
189.109
124.082
278.959
114.903
173.785
189.329
211.795
151.943
4.69583
175.223
200.036
-73.5337
-23.216
-142.959
-258.248
-162.171
-67.39
-10.3555
-158.221
-114.637
-77.1505
-10.5609
-168.758
-160.021
-127.883
-58.0683
-9.41682
-173.307
-152.547
-110.455
-54.5315
-14.9526
-156.768
-114.152
-61.1931
-21.3771
-139.709
-103.357
-57.1105
-22.0665
-142.447
-126.148
-84.0442
-38.1054
-7.81823
-138.849
-132.965
-91.5769
-40.9977
-9.44491
-136.853
-159.703
-117.011
-52.9387
-10.1573
-184.876
-288.944
-151.89
-55.3599
-15.6506
113.974
194.108
204.171
231.322
-21.3114
162.33
177.688
193.596
167.67
139.048
165.281
172.367
192.043
216.856
163.143
169.196
173.116
166.734
126.694
164.738
161.798
172.437
189.431
179.953
197.301
164.305
168.826
168.696
123.913
166.995
153.85
165.333
183.671
204.806
126.872
136.168
168.164
188.598
187.3
141.638
64.7385
186.094
201.216
178.346
156.998
-141.921
-347.732
-151.139
-70.0232
-18.436
-157.019
-169.094
-126.949
-45.0922
-10.1874
-154.573
-143.494
-97.2237
-45.0811
-9.88616
-164.177
-153.473
-100.586
-52.4418
-12.2918
-182.727
-151.06
-113.413
-62.4321
-24.5857
-163.888
-138.454
-103.728
-52.6016
-18.9273
-142.774
-126.124
-83.521
-39.7182
-8.80354
-139.156
-134.665
-92.4072
-40.3793
-9.20456
-136.327
-161.106
-114.303
-49.5757
-9.59811
-176.468
-330.419
-153.273
-63.4099
-16.1119
121.515
194.107
202.278
215.419
161.923
177.9
192.958
213.283
185.526
167.092
172.152
196.618
202.069
145.228
165.842
174.748
188.222
176.971
189.178
159.777
180.385
222.405
209.844
227.546
158.349
170.586
185.696
173.94
180.913
155.298
165.445
178.224
222.067
154.799
141.097
167.237
187.447
218.189
142.606
74.6672
182.669
201.038
211.614
148.852
-130.887
-378.787
-152.248
-68.5704
-16.3445
-149.904
-148.603
-104.998
-48.9887
-11.255
-148.813
-143.101
-103.426
-43.1426
-7.75075
-160.672
-153.016
-102.878
-50.5108
-11.6884
-181.338
-150.483
-108.021
-58.4524
-22.2048
-139.733
-102.039
-56.3437
-21.9343
-151.579
-138.241
-92.9759
-48.9144
-8.92042
-148.833
-146.101
-101.41
-47.6121
-9.25117
-133.811
-155.012
-123.767
-51.6149
-10.175
-183.261
-289.305
-150.394
-58.5677
-14.747
99.7333
192.475
203.988
203.397
-22.3988
154.677
175.802
192.904
198.476
159.57
162.805
172.145
194.139
200.836
151.467
167.051
171.351
172.5
135
162.604
165.072
169.133
169.458
176.552
181.175
163.102
164.737
166.272
134.115
177.549
151.006
166.841
189.046
193.46
89.7693
133.733
170.023
189.007
132.556
142.748
48.644
185.804
199.015
219.013
169.449
-148.815
-325.802
-165.095
-70.0717
-9.71885
-154.321
-165.766
-132.708
-58.4295
-10.5724
-157.063
-156.607
-112.229
-53.984
-9.24972
-166.435
-154.8
-102.145
-55.0339
-12.6093
-182.354
-150.892
-113.156
-61.9457
-24.6355
-163.701
-146.041
-104.586
-53.1297
-12.9741
-156.422
-152.949
-117.922
-49.3888
-8.79019
-142.978
-54.4776
-10.0821
-161.791
-214.913
-143.083
-53.582
-16.5005
-4.69647
-153.541
-69.518
-20.9719
124.403
181.667
195.787
228.902
158.838
152.749
172.37
192.922
203.417
124.099
157.827
169.259
188.565
222.194
266.519
157.94
169.211
194.773
200.016
158.149
152.104
168.057
189.071
198.844
176.715
144.194
170.017
188.539
152.007
147.519
108.602
181.117
190.178
158.636
144.544
-6.85132
181.007
198.571
-66.0179
-21.5267
-148.638
-225.14
-147.689
-61.1946
-9.77779
-156.04
-153.685
-62.5044
-9.90858
-164.453
-159.965
-133.82
-62.1322
-9.83471
-172.75
-155.627
-116.022
-59.0618
-13.1374
-154.117
-113.034
-63.021
-22.3781
-170.888
-153.133
-111.19
-47.5552
-12.6643
-161.948
-152.911
-103.63
-48.9826
-6.68442
-149.313
-139.964
-93.3923
-41.0537
-8.63682
-138.497
-175.454
-119.221
-41.5256
-9.06361
-185.012
-304.1
-145.948
-60.1495
-17.4526
37.5075
193.684
201.06
-23.0152
117.379
180.332
194.682
216.766
145.064
139.906
174.708
191.012
212.831
130.857
144.37
172.964
195.073
143.276
76.5785
135.818
173.596
189.387
207.393
122.033
107.6
182.114
189.541
191.294
134.419
48.9711
186.668
197.366
131.448
-21.8157
-183.862
-260.384
-136.06
-56.3547
-7.80555
-145.728
-143.56
-98.5227
-42.9207
-9.69052
-155.366
-159.525
-112.698
-51.3371
-7.5697
-161.212
-156.176
-105.933
-55.425
-13.9452
-172.722
-154.039
-114.084
-58.7147
-16.7131
-177.556
-150.256
-101.904
-52.8954
-17.9423
-162.757
-148.227
-95.951
-49.2206
-9.33692
-152.886
-134.393
-89.3653
-40.2188
-7.41274
-153.13
-158.647
-111.565
-50.8052
-8.00869
-140.728
-197.32
-125.755
-53.5072
-9.03155
-178.974
-290.74
-161.813
-64.6248
-14.6321
-31.6621
185.679
-164.789
-72.0687
-21.7494
73.5714
189.216
198.937
174.319
80.9374
189.001
198.726
186.459
176.567
71.0225
189.645
197.505
208.375
-22.796
183.176
-71.0893
-22.183
-174.605
-64.3661
-8.72844
-142.036
-181.075
-129.388
-56.7759
-9.59877
-147.945
-137.92
-94.112
-40.0524
-8.05575
-151.859
-138.636
-90.3515
-37.3125
-8.36067
-159.157
-150.589
-95.7112
-49.0145
-13.4561
-174.187
-149.4
-107.71
-57.683
-20.5252
-168.18
-145.418
-92.3384
-46.1307
-12.3863
-160.079
-151.351
-96.0943
-33.2955
-5.30988
-161.254
-153.326
-106.91
-50.1752
-7.74449
-157.498
-164.193
-130.271
-53.3481
-8.98193
-148.209
-182.383
-131.712
-54.7132
-8.60935
-156.126
-220.163
-132.131
-58.3428
-8.9088
-182.332
-257.258
-135.927
-61.7005
-14.0579
-183.432
-335.791
-67.6421
-14.5332
-186.856
-255.428
-135.306
-56.5916
-9.46819
-155.361
-207.967
-127.839
-57.8646
-9.35472
-153.023
-179.978
-136.985
-61.2666
-9.45495
-159.748
-169.121
-135.214
-54.8427
-9.02952
-157.01
-150.855
-104.28
-49.4266
-7.79645
-157.753
-147.779
-94.9417
-47.3915
-13.6901
-161.863
-146.159
-98.8438
-51.9877
-16.6017
-164.602
-148.629
-91.5216
-43.6046
-10.6942
-165.658
-156.378
-110.426
-52.235
-12.1281
-164.195
-156.796
-118.521
-51.7186
-9.27942
-151.243
-137.027
-93.4963
-40.9464
-9.09472
-147.644
-141.588
-95.757
-40.6297
-8.81246
-145.567
-167.229
-120.354
-53.5624
-9.47386
-145.633
-198.921
-65.4322
-8.82953
-156.07
-167.476
-123.471
-35.1476
-6.43383
-152.258
-141.615
-95.45
-42.1794
-8.93594
-158.263
-154.93
-106.498
-47.8305
-7.4691
-166.025
-152.356
-119.937
-54.2326
-8.02555
-168.504
-151.951
-112.6
-53.3121
-12.9043
-169.36
-146.803
-104.06
-55.1444
-16.4879
-146.108
-105.195
-57.7635
-22.6818
-171.77
-50.4629
-16.0736
-164.972
-148.341
-96.6301
-51.2536
-13.9448
-156.926
-147.182
-96.6773
-49.152
-11.333
-148.823
-131.215
-90.6755
-41.2785
-9.75366
-156.58
-153.66
-106.42
-48.9632
-8.7676
-161.544
-181.918
-60.693
-8.03268
-162.578
-161.7
-105.885
-32.3611
-4.86792
-158.24
-149.318
-79.2369
-32.0447
-6.23384
-163.104
-147.92
-93.795
-44.5862
-13.1346
-167.925
-145.7
-100.817
-49.9027
-16.2114
-171.73
-146.697
-121.334
-58.1369
-17.1224
-109.69
-54.37
-21.2165
-176.563
-147.217
-99.0262
-56.8978
-20.3595
-166.542
-144.404
-99.8322
-53.036
-19.1615
-158.783
-142.347
-94.2606
-48.499
-15.2914
-164.793
-148.689
-100.186
-49.0978
-19.2135
-168.342
-171.026
-59.7867
-13.0601
-166.766
-149.919
-98.0981
-45.4269
-13.3254
-167.916
-143.522
-85.7621
-43.4958
-12.6786
-169.993
-145.239
-92.944
-49.12
-15.1958
-173.808
-149.514
-102.225
-55.3926
-19.4088
-180.47
-148.263
-106.93
-61.3795
-24.2617
-181.394
-163.827
-56.9459
-20.2541
-183.386
-153.784
-105.986
-54.3466
-20.7352
-53.7105
-22.3517
-110.556
-105.131
-63.8374
-58.6367
-27.1363
-22.3175
-1.02164
-189.01
-159.019
-113.158
-158.7
-120.659
-105.485
-64.5479
-113.698
-64.9946
-58.822
-26.4584
-63.3347
-24.521
-22.0886
-1.01354
-20.8519
-1.20796
-189.435
-152.681
-169.183
-161.815
-162.573
-123.044
-114.732
-68.1744
-72.8687
-24.4234
-59.4524
-27.0514
-21.1624
-1.07731
-24.2017
-1.0725
-167.542
-161.568
-121.529
-113.61
-68.1143
-59.8176
-26.6668
-23.8379
-1.02072
-153.036
-147.329
-116.098
-108.457
-63.3722
-56.4263
-24.7244
-20.7147
-1.12207
-175.156
-153.105
-166.871
-156.128
-147.296
-114.789
-144.192
-113.561
-107.985
-63.1693
-100.955
-66.3466
-56.7311
-25.5451
-53.9789
-28.1436
-21.669
-1.39355
-19.143
-3.05275
-165.698
-156.456
-161.488
-156.883
-143.177
-113.013
-143.899
-115.219
-100.587
-66.574
-99.0913
-64.9111
-54.1832
-28.4096
-51.8403
-26.7088
-19.2529
-2.9726
-17.0899
-2.61133
-181.66
-152.754
-160.149
-159.297
-160.881
-160.644
-148.893
-112.351
-142.01
-119.024
-143.971
-121.001
-63.2369
-100.917
-66.4383
-91.658
-70.909
-94.492
-74.9372
-27.4546
-57.526
-29.1466
-45.966
-29.8092
-48.9931
-30.7567
-20.1963
-2.12038
-13.133
-4.47914
-13.6478
-4.56804
-153.496
-183.66
-158.935
-167.785
-165.088
-173.676
-167.2
-116.032
-157.061
-120.781
-146.276
-123.351
-164.897
-127.448
-67.1826
-113.496
-64.2102
-98.3839
-76.0781
-121.68
-66.0468
-29.6181
-54.7574
-26.183
-52.8021
-32.3937
-54.36
-29.0729
-1.9761
-19.119
-1.84755
-14.9024
-4.95767
-13.897
-4.13342
-157.561
-192.726
-172.419
-175.488
-162.826
-177.93
-178.774
-160.773
-128.639
-167.042
-166.492
-132.659
-113.187
-71.61
-68.5007
-117.652
-73.8529
-26.761
-57.8545
-27.9365
-64.9972
-30.5153
-51.5774
-31.1754
-1.25582
-22.7785
-2.01098
-14.3345
-3.90583
-15.7581
-5.73002
-167.238
-168.091
-176.444
-178.398
-177.301
-177.805
-124.26
-162.628
-117.236
-158.847
-132.306
-158.861
-130.706
-71.4279
-111.191
-67.4386
-108.385
-80.3109
-102.094
-73.3267
-27.3861
-61.8667
-27.6183
-49.8438
-30.6728
-47.8339
-30.0494
-2.00644
-26.0618
-1.40436
-14.525
-5.63075
-14.6697
-5.61284
-177.963
-171.522
-180.861
-169.315
-117.387
-150.94
-125.649
-153.727
-118.595
-67.6144
-99.9108
-74.9243
-106.775
-74.2235
-27.9369
-52.5335
-32.6361
-59.1149
-30.5587
-0.974899
-15.7677
-5.38883
-19.4486
-3.30806
-181.514
-169.429
-188.238
-164.027
-154.207
-119.001
-157.851
-122.381
-107.479
-75.7546
-108.251
-75.7169
-60.5324
-29.4616
-62.0392
-30.0137
-18.5282
-3.65842
-20.506
-3.17421
-189.908
-163.454
-156.84
-119.893
-111.549
-71.753
-64.3304
-27.7314
-23.1265
-1.746
-173.65
-138.311
-50.5721
-21.1392
-15.0379
-1.33137
-174.104
-154.682
-170.485
-156.265
-165.694
-160.154
-148.297
-118.891
-149.498
-144.43
-124.043
-107.793
-67.5362
-65.9662
-100.547
-77.6527
-54.8842
-26.2008
-48.7877
-20.6629
-50.9972
-29.7285
-17.7789
-2.16154
-14.665
-1.78988
-15.1622
-4.33273
-156.804
-162.724
-158.707
-163.246
-160.968
-160.513
-159.908
-117.099
-141.958
-119.86
-144.901
-121.672
-147.072
-122.542
-66.6567
-98.0696
-73.4631
-99.3867
-77.5541
-97.0847
-76.0452
-27.1321
-49.6539
-32.217
-53.2161
-29.5241
-52.8514
-29.6001
-2.98141
-15.5719
-5.37312
-12.5382
-4.00038
-12.0047
-4.29586
-126.178
-166.955
-128.1
-151.182
-134.08
-165.026
-139.632
-79.9556
-122.631
-66.239
-104.003
-79.7425
-133.645
-68.1565
-171.429
-135.557
-179.022
-172.017
-142.983
-68.6882
-118.341
-76.0244
-71.2018
-123.804
-81.2917
-172.996
-183.944
-169.507
-172.161
-170.115
-174.301
-173.242
-166.694
-177.135
-173.061
-181.338
-170.913
-122.734
-155.591
-131.429
-159.482
-135.187
-75.8092
-108.507
-86.1364
-121.353
-76.2082
-30.1957
-58.9728
-33.566
-59.3389
-29.8761
-3.52792
-14.0774
-4.2417
-17.2793
-2.40698
-182.26
-165.618
-157.477
-136.091
-155.613
-122.532
-127.214
-72.2869
-113.261
-65.604
-64.5542
-26.9423
-56.9034
-23.5008
-17.3172
-1.90455
-20.7873
-1.29073
-170.955
-152.267
-138.304
-104.263
-88.0555
-56.934
-43.4396
-23.7739
-15.3329
-2.41525
-170.594
-153.749
-168.574
-153.877
-166.986
-161.582
-126.739
-136.582
-111.711
-149.531
-117.193
-73.6126
-87.0179
-63.7617
-101.704
-63.3647
-46.602
-22.4439
-42.5041
-27.176
-41.589
-26.5166
-15.8945
-1.75968
-11.6797
-4.22446
-13.8346
-4.93023
-150.199
-123.919
-151.265
-119.386
-154.09
-134.765
-107.808
-72.6081
-104.648
-63.0502
-121.833
-63.7451
-140.727
-166.028
-141.698
-160.799
-148.344
-170.106
-152.642
-82.8239
-136.049
-68.8634
-116.943
-88.8749
-143.109
-71.7441
-172.914
-148.035
-167.724
-173.237
-160.245
-72.0079
-128.68
-81.4
-74.0178
-139.708
-82.3341
-130.418
-161.195
-137.178
-162.988
-144.777
-159.168
-130.057
-80.249
-127.695
-70.5468
-128.745
-82.4979
-119.105
-70.1769
-162.909
-188.5
-162.53
-176.147
-168.37
-176.069
-167.942
-154.029
-124.269
-157.407
-131.034
-148.454
-127.303
-70.0403
-110.173
-67.7698
-114.599
-73.6446
-104.873
-78.2244
-27.8075
-54.8434
-23.7184
-55.469
-29.0142
-51.2244
-30.4267
-3.40909
-18.6693
-2.48501
-13.2648
-4.2184
-14.1809
-5.39437
-163.926
-175.611
-164.749
-158.483
-118.003
-150.547
-119.965
-151.627
-111.037
-64.4421
-106.234
-70.1121
-104.171
-63.8631
-23.7534
-54.9584
-25.8161
-57.8494
-25.1578
-1.48708
-17.4888
-3.02674
-21.4057
-1.1662
-167.953
-152.954
-139.86
-106.494
-93.4876
-56.6966
-44.6465
-26.1082
-20.3333
-2.20189
-167.452
-152.594
-164.92
-152.954
-159.231
-157.132
-134.873
-109.62
-140.47
-106.618
-137.909
-110.509
-81.4327
-59.8429
-92.0311
-57.9605
-84.9824
-63.2342
-39.15
-24.6158
-43.9639
-25.722
-37.659
-22.9167
-11.6635
-3.97651
-19.8828
-2.5954
-12.738
-5.10419
-120.386
-153.113
-139.68
-149.36
-129.59
-155.407
-132.845
-65.7327
-123.744
-67.7379
-101.18
-71.3831
-114.675
-67.0356
-134.834
-159.318
-135.436
-156.452
-134.319
-171.141
-156.7
-67.866
-117.809
-82.5145
-122.636
-65.0353
-134.36
-77.0208
-158.504
-174.167
-156.176
-237.866
-183.641
-280.733
-178.563
-90.8307
-144.42
-71.9127
-134.204
-94.948
-163.244
-74.101
-179.204
-166.279
-278.749
-287.253
-193.687
-74.5974
-142.718
-83.6186
-73.7648
-160.058
-87.7543
-159.604
-164.219
-150.063
-183.341
-172.491
-141.939
-92.3586
-133.166
-85.1486
-148.519
-85.9935
-72.6365
-146.776
-158.116
-135.886
-163.982
-156.074
-162.741
-137.512
-79.286
-118.497
-74.4343
-140.286
-71.5937
-119.247
-75.4348
-167.06
-181.539
-160.318
-164.981
-164.822
-167.406
-164.332
-123.268
-149.775
-114.03
-151.147
-125.992
-147.387
-122.385
-73.8581
-101.999
-66.2815
-94.5011
-72.418
-92.2823
-70.9816
-27.946
-55.4111
-27.4
-47.6668
-28.6406
-46.0764
-27.5987
-4.83293
-18.4474
-2.18597
-11.5002
-4.42037
-11.0841
-3.6388
-156.581
-171.033
-160.419
-111.17
-147.03
-116.664
-62.8307
-98.7663
-64.5774
-25.3472
-51.4345
-25.2404
-1.3796
-14.6074
-2.37164
-146.627
-106.997
-100.805
-55.4739
-52.0107
-20.0402
-18.1726
-0.428656
-165.5
-152.901
-174.307
-153.103
-159.453
-158.656
-141.226
-106.621
-146.585
-107.055
-139.898
-115.889
-92.0194
-57.8624
-99.8743
-55.7599
-87.3368
-62.2347
-45.3448
-26.8065
-51.3639
-21.7068
-41.2455
-27.5564
-19.6935
-2.79523
-19.152
-0.808716
-15.2984
-5.22386
-142.383
-177.822
-158.589
-184.138
-149.155
-263.248
-167.033
-72.3545
-143.126
-77.3989
-122.047
-73.2816
-149.078
-74.1749
-166.498
-239.405
-186.432
-235.646
-406.095
-183.531
-82.6214
-132.794
-96.039
-76.5953
-154.688
-83.973
-193.873
-309.46
-188.026
-177.142
189.755
200.252
-95.5578
-151.84
-85.9915
-160.294
-83.3419
199.976
-35.3563
-58.4829
-35.3895
-66.7426
-28.3704
-25.7225
-5.00202
-15.8142
-5.01415
-19.5655
-5.10465
-21.2961
-3.28901
-369.284
-167.969
-441.59
58.6634
179.351
80.1442
178.795
-187.837
-342.907
-180.826
194.787
199.509
191.656
198.805
-86.4385
-166.311
-74.6806
199.315
176.558
198.815
151.222
-33.3058
-60.7098
-28.2078
223.852
-23.6851
244.768
-4.4144
-14.9351
-4.35127
-21.2645
-3.69576
-2.15359
-364.271
-188.65
-426.344
79.3358
179.069
61.6924
175.705
-361.657
-198.51
191.451
198.674
191.146
199.959
-75.3228
-162.968
-89.0934
198.524
183.31
199.825
136.139
-28.336
-68.3984
-33.2353
240.09
197.004
-27.0669
-4.33569
-16.7395
-4.80898
-1.97189
-24.117
-2.63618
-200.212
-302.744
-200.846
189.88
200.019
175.426
-92.8973
-158.817
-100.762
199.852
159.836
-83.933
-34.98
-66.9576
-36.6721
205.813
-26.4142
-77.0319
-31.8287
-5.26054
-15.4268
-5.13628
-21.9346
-3.36392
-22.4781
-2.72862
-215.907
-231.456
-200.12
-201.254
-386.422
-210.854
-100.817
-145.146
-100.58
-182.95
-89.3594
-189.316
-80.6657
-177.352
-146.682
-160.965
-143.134
-291.422
-139.857
-184.379
-180.441
-154.801
-164.045
-205.156
-183.629
-88.2052
-146.964
-75.0688
-152.201
-84.8934
-30.3662
-63.0157
-29.9835
-72.2135
-30.4842
-61.3052
-30.218
-156.242
-162.59
-146.035
-177.636
-169.829
-162.504
-153.653
-81.4947
-117.879
-89.6803
-135.15
-93.9279
-123.093
-91.683
-160.703
-166.774
-166.335
-174.794
-165.644
-121.296
-151.009
-126.931
-152.833
-121.593
-70.2828
-95.8545
-73.8627
-107.977
-70.6576
-28.307
-49.2704
-30.2979
-57.7486
-26.1151
-3.67676
-12.5073
-4.39132
-17.6103
-2.92638
-177.557
-163.999
-156.11
-118.83
-111.884
-71.5558
-59.164
-26.6756
-18.1531
-1.21662
-175.326
-153.522
-169.082
-157.597
-146.548
-108.444
-149.127
-123.219
-100.922
-56.1973
-108.696
-65.3323
-52.5425
-22.1427
-47.7976
-22.4998
-18.2584
-0.501979
-15.6891
-2.18356
-157.363
-158.568
-160.676
-165.143
-160.049
-156.926
-160.256
-111.774
-147.344
-123.09
-144.126
-126.556
-147.795
-125.857
-61.0184
-94.0903
-64.7819
-100.907
-73.5051
-99.545
-73.6276
-24.6766
-39.7362
-24.3314
-43.8407
-25.4613
-46.0493
-25.435
-2.26925
-11.5355
-4.60523
-12.8804
-4.78086
-10.9521
-4.39152
-174.877
-288.479
-174.069
-282.616
-167.855
186.43
-86.7923
-142.379
-76.1726
-125.558
-88.566
-71.5381
-171.993
-178.46
187.985
204.237
184.264
199.217
-73.8909
-159.825
-79.7051
204.073
-72.3309
198.292
175.499
-24.6401
-70.0112
-27.1686
-65.042
-21.7375
219.462
168.866
-3.13575
-19.2687
-2.51811
-17.4983
-2.1575
164.922
189.776
200.281
185.305
195.129
179.558
190.267
-77.481
200.791
246.747
195.686
189.843
192.613
197.129
-25.9471
223.259
199.705
164.992
201.314
182.454
-2.8348
-19.479
-1.4517
160.756
-1.55031
136.914
-3.38547
198.826
187.468
194.018
177.084
188.455
177.382
186.995
194.509
197.403
134.881
191.806
191.656
191.183
219.554
249.668
179.005
217.466
152.45
231.684
90.6965
-1.47729
183.647
-0.678699
105.356
0.699556
142.923
10.4606
192.973
186.917
197.536
176.608
186.542
174.287
185.817
182.643
198.034
175.367
191.016
202.678
189.216
231.267
171.624
200.374
173.358
212.723
150.543
162.705
167.603
-0.860239
-0.291364
143.108
170.485
-2.23453
198.55
178.533
201.612
174.342
186.487
176.788
190.39
150.904
200.98
-82.2593
189.99
179.057
192.499
162.724
-74.6165
-27.9827
149.63
103.67
183.542
136.742
-1.10571
-22.5379
-2.56267
123.763
0.689328
153.933
-0.424655
201.135
-402.815
171.001
193.754
182.348
197.976
-83.0148
-81.1279
194.611
291.52
197.194
190.7
-27.7637
-76.813
-30.2958
183.031
146.829
177.737
-24.3707
-2.38004
-20.561
-3.57399
154.63
-3.77754
-23.6129
-2.33388
-283.734
-216.769
175.018
198.817
-402.954
-212.425
-150.889
-99.4573
197.943
181.758
-170.354
-93.1657
-32.4087
-58.1124
-34.7068
-23.5419
-58.3907
-35.0785
-164.432
-176.468
-168.673
-122.075
-156.332
-131.404
-71.5576
-117.92
-75.966
-26.9304
-57.7812
-26.1808
-2.01184
-16.6511
-2.69787
-165.872
-156.064
-162.465
-152.429
-151.609
-122.486
-140.984
-121.698
-113.016
-60.3387
-109.313
-72.7714
-47.713
-22.1621
-54.7711
-23.8735
-15.8285
-1.60713
-15.9127
-2.00811
-158.34
-158.592
-160.24
-158.706
-154.8
-155.354
-151.995
-127.48
-152.98
-125.586
-143.699
-122.34
-154.723
-128.106
-65.1145
-109.556
-69.1426
-111.194
-72.7322
-120.672
-65.1987
-25.0005
-52.5892
-26.1673
-55.7665
-26.1196
-51.0322
-27.6874
-128.893
-152.673
-129.366
-157.337
-130.437
-156.639
-71.2141
-110.689
-77.8678
-121.806
-64.6989
-65.825
-139.694
-159.362
-149.031
-156.281
-143.397
-180.178
-154.616
-81.7012
-114.999
-85.7945
-130.415
-66.2929
-133.684
-77.4118
-159.174
-247.49
-177.241
-207.39
-160.633
-386.995
-172.852
-87.5283
-124.632
-87.2376
-135.254
-87.2217
-141.856
-78.1407
-166.794
188.267
204.402
-161.032
187.763
201.236
-80.0102
204.132
-72.2252
-145.261
-73.5438
201.235
219.706
-27.5075
-65.8907
-22.5747
-60.8219
-29.6822
184.688
160.867
-4.64279
-18.8411
-2.2571
-21.7181
-2.25669
156.981
-10.1664
197.218
206.205
198.343
141.761
196.281
159.294
-19.893
227.505
164.75
156.646
146.378
157.244
78.397
-2.16098
160.544
151.846
-1.08604
157.491
-4.49148
209.029
191.841
151.91
196.23
201.737
193.058
213.187
156.956
193.31
160.835
146.888
157.253
197.869
157.702
-3.62314
182.708
-2.91685
167.715
-6.71877
158.581
-56.3059
193.578
189.782
215.066
190.773
303.477
185.906
371.337
165.244
225.777
94.1198
182.244
153.712
200.782
200.772
0.368525
146.969
10.3906
62.0078
201.523
-27.3365
202.259
188.599
190.847
187.148
222.355
187.428
198.926
139.553
170.093
178.987
193.79
-9.90632
200.564
113.034
154.477
-5.54074
137.513
-54.2883
153.087
190.789
209.449
187.879
198.874
188.99
172.698
158.488
189.893
138.331
206.603
142.205
138.498
153.512
-2.23626
161.081
1.81013
129.335
158.539
-8.58139
186.837
194.584
189.697
188.772
-5.19437
189.689
194.052
129.516
207.413
166.332
95.524
216.735
143.048
-11.5351
-1.38839
148.973
-9.48308
127.967
1.64079
198.298
-424.695
-208.886
181.672
190.479
178.854
200.573
203.824
-170.947
-92.681
191.593
194.411
199.793
-24.0312
-69.3148
-31.7911
215.279
137.49
-73.0261
-29.2893
-2.60112
-21.9792
-2.42643
150.423
7.04713
-23.9629
-2.84515
-210.909
-255.254
-200.328
174.136
-299.535
-191.27
-93.637
-145.157
-101.795
-83.5264
-143.678
-99.2281
-38.0374
-62.1686
-37.6029
-74.3746
-33.2712
-63.8695
-38.3949
-175.478
-168.85
-161.742
-244.664
-182.913
-174.478
-160.128
-97.3622
-125.22
-91.7264
-152.485
-85.5936
-147.804
-79.8389
-149.599
-166.121
-138.348
-159.994
-158.296
-159.037
-84.8744
-121.117
-76.3895
-146.536
-75.4496
-72.3506
-137.993
-157.124
-132.841
-163.178
-150.433
-157.776
-138.454
-75.2524
-118.833
-76.3112
-135.063
-73.0168
-123.645
-73.491
-166.06
-175.69
-169.976
-188.073
-161.165
-130.41
-157.172
-134.177
-156.058
-129.304
-74.8135
-119.858
-76.0885
-117.119
-73.7343
-29.4405
-57.2924
-29.0843
-58.5776
-27.6266
-3.39748
-13.1183
-4.11877
-19.3574
-2.4646
-161.741
-157.601
-125.145
-117.141
-69.2979
-61.1552
-25.4128
-21.528
-1.66733
-159.737
-151.737
-145.368
-153.422
-151.727
-136.642
-118.496
-140.564
-108.534
-135.537
-115.773
-100.121
-76.3508
-103.223
-62.7165
-95.9798
-74.3747
-52.0106
-30.4162
-56.9208
-25.2475
-50.4436
-28.824
-13.2616
-4.45485
-22.3959
-0.0675296
-13.2295
-4.58453
-120.924
-149.247
-126.529
-138.196
-118.764
-143.747
-125.663
-76.8603
-113.994
-68.6472
-94.789
-77.8617
-98.9765
-78.3372
-130.792
-147.166
-130.311
-153.558
-143.642
-70.3969
-102.555
-79.3817
-113.635
-84.8771
-189.469
-154.569
-157.722
-146.567
-221.878
-170.531
-141.397
-70.5047
-125.835
-79.2905
-144.329
-82.8742
-216.308
-60.9979
-453.932
-178.008
-277.339
33.8985
183.382
-156.501
-388.76
-162.429
-269.383
-179.682
192.194
204.347
-77.1066
-148.107
-78.2662
-153.005
-83.5285
203.964
-29.6105
-61.8931
-28.1884
-62.3239
-29.9776
-25.2462
-3.89624
-21.0372
-3.86287
-13.6822
-3.60581
-20.1118
-2.62559
-159.67
190.228
198.528
194.007
203.93
184.5
194.523
-72.6911
199.382
169.511
203.913
196.448
196.013
189.064
-28.6734
180.642
159.033
220.872
-17.6838
199.881
90.8369
-2.41314
155.562
-2.89292
-18.3735
-1.18604
138.652
-2.33665
289.719
194.776
181.474
194.722
135.885
193.149
154.695
143.564
187.239
172.233
189.181
143.684
209.071
61.6972
-3.88199
187.166
162.521
-2.28949
175.244
-72.6351
152.684
194.552
181.835
192.69
231.148
177.3
258.227
132.353
195.553
167.409
208.648
108.064
186.134
84.3451
-4.6243
236.368
-46.8561
164.116
247.242
353.784
184.491
345.112
170.716
208.053
172.917
170.128
105.72
200.091
156.752
142.326
94.9236
172.476
178.178
-60.6636
161.767
-28.7683
154.652
182.375
382.559
164.54
160.636
163.599
164.672
166.601
165.229
164.814
178.169
167.41
177.392
170.546
178.255
168.748
158.659
218.021
184.708
237.912
173.713
173.246
165.682
141.246
127.05
206.278
-31.5044
176.268
178.857
101.477
175.347
111.298
182.955
329.27
179.886
320.143
208.221
191.166
2.7172
173.467
162.552
183.077
205.015
124.435
142.387
180.021
91.562
132.457
208.798
166.328
357.281
-17.1215
154.772
292.811
185.611
165.206
187.561
192.987
184.685
318.703
187.643
163.259
175.222
213.222
163.901
208.314
151.247
179.881
83.7519
-27.669
136.161
3.04311
229.284
135.334
-7.63103
187.443
185.543
199.911
169.235
183.858
183.113
196.308
215.432
199.959
188.815
202.785
196.971
135.867
138.428
-26.5354
195.23
113.508
138.289
153.978
1.49918
-23.4404
-1.90225
145.89
-6.49049
152.384
-0.218146
150.72
-133.832
-296.532
42.6242
159.666
-106.7
-430.456
200.915
-320.554
-196.778
187.257
200.835
-405.113
-200.354
-82.6598
-159.092
-88.7128
199.747
106.063
-170.874
-93.9035
-31.0296
-70.6644
-34.5336
184.692
157.042
-71.3433
-30.0647
-2.5356
-16.1094
-4.51485
-1.9181
-16.1672
-4.2616
-182.516
-158.474
-322.558
-200.796
-181.36
-170.155
-85.3396
-76.4188
-167.719
-93.3247
-144.7
-84.6546
-161.968
-145.725
-174.613
-162.152
-167.226
-151.088
-135.323
-73.8293
-140.138
-84.2227
-122.136
-87.0385
-143.668
-159.498
-133.937
-160.534
-140.32
-156.397
-133.171
-74.7183
-118.675
-74.0015
-110.779
-84.8597
-104.301
-81.7807
-168.974
-186.74
-165.133
-169.621
-169.307
-179.42
-166.772
-131.382
-154.79
-126.655
-153.827
-128.029
-152.971
-119.797
-83.7893
-112.526
-73.5057
-103.81
-80.8342
-109.733
-75.6658
-32.8661
-58.7069
-26.8618
-54.9913
-32.4805
-60.9075
-29.5904
-5.47592
-18.8455
-2.98368
-13.7057
-5.67906
-21.0438
-2.89936
-161.785
-183.473
-158.474
-122.129
-152.121
-119.417
-69.8197
-113.976
-70.3931
-25.08
-62.9745
-28.7275
-1.54588
-24.7402
-1.60557
-112.938
-108.401
-61.2806
-55.9752
-22.7741
-19.7608
-0.607287
-143.691
-148.688
-149.121
-163.76
-141.07
-147.331
-148.174
-108.393
-134.423
-115.544
-138.547
-113.306
-135.136
-117.448
-62.2918
-90.8751
-71.1616
-102.401
-63.4446
-91.0042
-69.8029
-24.9102
-47.6393
-29.0672
-54.3849
-25.1243
-45.5142
-27.8579
0.0458294
-12.0378
-4.05047
-18.1323
-1.99759
-11.3151
-3.92613
-184.732
193.071