/*--------------------------------*- C++ -*----------------------------------*\
| =========                 |                                                 |
| \\      /  F ield         | OpenFOAM: The Open Source CFD Toolbox           |
|  \\    /   O peration     | Version:  4.0                                   |
|   \\  /    A nd           | Web:      www.OpenFOAM.org                      |
|    \\/     M anipulation  |                                                 |
\*---------------------------------------------------------------------------*/
FoamFile
{
    version     2.0;
    format      ascii;
    class       volScalarField;
    location    "33";
    object      p;
}
// * * * * * * * * * * * * * * * * * * * * * * * * * * * * * * * * * * * * * //

dimensions      [0 2 -2 0 0 0 0];

internalField   nonuniform List<scalar> 
146404
(
-3.90846
-1.44552
-6.41157
-3.21091
-8.21411
-4.02103
-1.39793
0.827816
-0.787206
-9.47021
-0.683957
-4.01052
-2.37704
-8.85037
-4.16379
-1.82821
-5.15106
-3.75017
-2.64354
-4.9012
-3.96677
-7.46373
-4.73249
-2.11842
-1.35638
-3.86589
-7.55581
-6.07967
-2.47997
2.43723
-4.83368
-12.9978
-7.74914
-2.31001
2.97317
-3.2546
-10.7665
-6.17725
-1.87012
7.50828
5.49124
-13.9945
-2.33449
5.43699
-3.22951
-12.5019
-7.19788
-2.78372
4.19626
-1.90696
-7.82711
-6.24511
-2.58007
2.73492
-1.42311
-6.44684
-5.02954
-1.97591
0.418689
-1.39132
-5.63575
-3.78036
-1.60728
3.08939
-2.76836
-0.561827
2.50042
-4.04191
-12.6818
-6.71332
-2.77474
6.14278
-4.24926
-16.7498
-9.29072
-3.00743
8.28767
-5.5897
-21.7881
-13.4558
-3.9654
10.3675
-3.21793
-17.6156
-10.8342
-3.73353
16.1887
2.36286
-22.4829
-4.28114
13.1104
-6.26319
-21.7216
-12.3201
-4.73082
17.5182
-3.02175
-19.9665
-11.064
-4.5104
11.3056
0.194086
-12.7767
-9.3855
-2.9205
7.97676
-1.65247
-11.2384
-5.87509
-1.59996
7.54128
-0.521433
-9.82828
-0.0733734
1.37865
-7.5175
-2.9068
-0.39774
-0.810333
-4.08549
-8.73895
-4.71307
-1.47962
5.40005
-2.17849
-15.4511
-5.50636
-1.47979
12.0603
1.40365
-23.1282
-5.16225
-3.28325
16.9346
-7.06458
-24.3286
-14.3556
-3.64355
25.4287
-22.8438
-33.256
-21.4524
-5.93815
37.9492
-30.5859
-35.8974
-21.0113
-8.03304
46.2277
11.5014
-36.1112
-9.12744
37.238
-27.144
-46.8275
-25.2273
-7.45538
24.5431
-21.4066
-47.4663
-24.6251
-5.40092
25.2154
-1.47983
-26.4961
-15.9004
-5.03461
18.6827
6.14147
-23.8539
-9.99209
-2.20314
10.1247
1.00426
-12.4086
-6.81471
-2.13574
4.41198
0.751488
-5.62839
-4.49562
-1.64653
1.27412
-2.75399
-2.71642
-2.23073
-2.31839
-3.91424
-6.96796
-5.19081
-1.96582
4.18993
-4.46381
-14.1837
-7.47377
-2.24763
9.5164
-4.42031
-18.7998
-11.7283
-3.18185
29.7073
-1.54201
-37.1969
-12.8251
-4.6542
58.9429
-22.1307
-65.2155
-29.8262
-5.43768
108.373
-127.493
-106.415
-41.145
-9.43142
113.964
-156.272
-121.599
-38.6904
-14.5838
139.515
-151.09
-32.7441
-20.7738
115.828
-162.33
-135.818
-43.1
-15.7644
92.0827
-118.421
-107.761
-46.6423
-15.6917
58.7845
-8.41572
-76.1895
-41.6508
-9.33594
34.3554
8.06901
-43.2303
-22.6975
-7.22999
15.7966
0.865163
-17.233
-10.5651
-3.29819
9.75172
0.0939064
-8.64614
-6.24635
-2.31658
3.64121
1.81672
-4.26165
-4.30559
-2.27663
-4.86085
-4.00324
-7.3751
-4.10275
-1.87439
3.17364
-5.34892
-10.5795
-6.99004
-2.3731
8.354
-6.34028
-22.3362
-11.0015
-3.22423
19.6302
-16.4202
-44.6867
-15.9134
-3.48527
62.9956
-137.766
-72.5423
-26.9304
-5.73448
143.929
-138.659
-118.853
-37.7361
-9.49371
315.554
438.682
-39.6041
-10.8514
384.698
436.966
438.137
413.504
387.368
433.493
437.372
433.799
309.307
374.543
433.273
436.933
424.534
307.612
430.756
-49.8538
-15.9562
176.462
-51.3064
-17.1238
61.7663
-56.4706
-111.098
-33.6346
-7.56131
22.5622
-1.52332
-33.3285
-18.5875
-5.34071
14.5974
4.29556
-17.1382
-12.5486
-3.45838
8.7167
0.95079
-7.24055
-6.33968
-2.46751
2.34512
1.29975
-4.59625
-3.38242
-1.3511
2.9302
-1.83263
-13.3725
-2.27918
-0.521152
6.16224
-4.00498
-15.8951
-8.17056
-1.46677
14.7825
-7.02592
-25.5904
-13.1728
-4.00494
44.7129
-65.0484
-64.3458
-22.8254
-6.31355
145.484
-107.707
-107.953
-35.8849
-10.2436
378.859
440.751
440.732
-10.3827
415.897
433.586
436.862
408.176
300.921
417.118
429.895
434.241
441.676
328.52
415.614
428.191
434.434
424.754
279.8
411.43
427.679
432.485
415.874
327.559
392.39
427.933
433.297
401.343
290.399
347.297
433.79
435.274
426.539
-18.554
170.568
-73.0318
-130.757
-51.0462
-20.2899
40.405
-29.9789
-60.6699
-32.1083
-8.34805
22.8016
3.99746
-24.755
-16.7791
-2.52173
13.0952
4.3493
-14.6843
-8.88533
-1.2437
8.25625
2.91092
-11.4255
-2.56323
-0.923741
2.71292
-3.20006
-12.1002
-4.67429
-2.05818
9.96937
1.42783
-18.6793
-6.85484
-3.1061
29.6577
-19.3822
-5.80732
82.8387
-82.4863
-82.2918
-33.0994
-11.5961
307.895
-99.9274
-30.0298
-12.4359
416.75
434.227
439.061
394.098
277.693
420.712
430.884
438.09
377.78
263.594
419.014
427.815
436.791
434.978
296.874
417.349
425.237
432.701
436.166
213.695
415.922
425.365
434.219
458.524
329.591
410.628
425.687
433.26
349.882
308.219
387.467
428.087
429.527
431.437
306.59
301.67
429.013
434.552
-48.8367
-19.7524
81.4439
-66.6347
-120.415
-49.2138
-12.0284
33.5257
68.2478
-45.2311
-5.04825
15.7998
7.8463
-20.5247
-10.091
-2.36074
8.03195
1.52386
-8.96555
-4.73316
-2.02833
2.71036
-5.13411
-3.223
-1.62534
-2.06846
-4.86577
-3.57957
-2.55093
3.86882
-3.86466
-12.0785
-6.20762
-1.9328
10.3556
-5.29825
-23.5874
-12.5068
-3.15799
32.2867
-22.4873
-36.2367
-22.1115
-6.47873
95.0971
-147.696
-120.449
-32.9927
-12.0285
382.53
439.252
440.816
440.723
-12.215
420.064
433.045
437.772
391.673
265.627
420.701
429.648
436.743
464.268
221.071
419.632
426.36
427.38
297.997
247.109
414.832
422.687
415.201
346.136
244.687
415.534
422.25
421.585
294.961
239.89
414.101
424.442
432.304
446.094
174.76
400.346
424.763
429.614
412.783
249.48
347.182
432.52
435.562
386.082
309.02
120.726
-105.867
-127.685
-54.57
-18.6197
24.8422
-4.77832
-37.1784
-14.833
-4.64111
15.5329
1.6071
-13.6654
-10.0924
-3.34178
9.23398
3.2277
-7.27848
-6.31155
-2.73836
1.71311
2.74905
-2.15328
-3.32332
-2.53947
-8.53531
-2.1074
-4.54921
-4.11306
-2.53959
3.87993
-3.838
-11.934
-6.04374
-1.92513
10.3422
-5.30951
-23.7018
-12.6798
-3.40121
30.8931
-28.1636
-41.0449
-25.4003
-7.24911
118.577
-82.5111
-115.705
-40.5123
-10.2439
388.792
439.652
440.351
423.556
420.602
433.737
438.286
443.838
329.414
421.634
430.405
444.944
455.259
223.748
418.15
426.79
419.365
335.956
262.998
413.16
421.585
407.76
349.736
257.431
412.793
422.248
416.43
342.211
253.651
415.681
425.439
431.307
464.49
220.733
404.157
425.926
431.163
444.725
251.579
354.735
432.252
434.851
414.782
321.967
137.819
-72.182
-128.906
-51.5262
-16.9271
22.9329
-3.85228
-30.2079
-15.4505
-4.30744
16.7497
1.53917
-15.9949
-9.95125
-3.23212
9.9004
3.1476
-7.2977
-6.22255
-2.67792
2.01806
2.95165
-2.34562
-3.68935
-2.11881
-2.08708
-4.62862
-3.09552
-2.56595
2.02122
-2.11616
-9.21523
-5.68095
-1.89215
9.80129
-1.41445
-17.5213
-11.0753
-3.62026
35.2911
-11.3201
-34.6454
-20.0633
-7.3583
118.948
-158.182
-105.86
-42.2701
-12.1984
376.215
440.093
440.793
416.519
-11.8538
418.4
434.253
437.863
426.612
272.566
422.484
431.893
441.528
443.759
224.634
421.546
428.569
432.625
323.281
245.183
418.612
425.607
422.033
338.56
260.561
419.308
425.996
429.363
333.187
256.14
415.158
428.237
436.283
444.166
143.767
401.337
429.711
432.771
350.523
265.258
338.849
437.281
435.694
427.926
322.843
103.243
-94.4821
-150.371
-53.6666
-11.3922
32.924
-0.686576
-37.4994
-22.2077
-4.78079
16.2056
4.79282
-15.0427
-11.0592
-2.37586
7.87751
2.28156
-6.95662
-5.55858
-2.51005
1.64485
2.55702
-2.24878
-3.00556
-2.30046
3.99499
-1.77882
-11.2618
-3.37076
-1.17592
11.2072
0.691831
-18.9345
-1.82444
-2.11867
27.8276
-12.1163
-4.0073
71.9992
-64.7667
-90.4787
-37.302
-9.83755
291.006
-115.869
-46.9122
-14.7707
399.991
436.472
438.814
442.597
291.722
418.854
433.224
438.433
432.841
226.485
421.087
431.54
437.018
446.825
336.669
420.652
432.717
451.333
449.692
241.22
417.422
430.262
436.506
434.919
262.305
410.794
430.004
434.178
372.178
256.943
387.227
434.734
434.13
370.751
297.33
293.561
432.98
437.842
-45.3373
-14.7307
62.2812
-81.1664
-87.9065
-41.1091
-6.48855
25.1608
14.0001
-38.5941
-1.71737
13.684
9.55162
-22.9308
-11.7089
-1.42442
7.46964
5.12947
-10.8616
-6.24221
-1.25993
1.79707
-5.31807
-3.20765
-1.90751
0.51092
-4.66833
-13.8206
-3.91161
-1.39801
4.45921
-4.98536
-13.0708
-7.69963
-2.38765
11.5575
-5.48181
-24.1686
-13.4474
-4.18516
34.2523
-35.3781
-48.7096
-20.7987
-5.09567
135.766
-86.7392
-117.146
-47.3291
-14.1289
335.306
442.752
442.983
-14.6237
395.645
437.443
438.482
434.011
263.549
408.423
433.485
437.415
449.845
249.832
410.327
433.308
442.324
360.569
167.491
405.463
432.562
436.197
446.099
261.692
387.438
435.847
434.568
406.571
289.701
340.355
438.257
438.125
346.882
-13.4962
95.4312
-156.849
-101.144
-40.3738
-4.8065
13.9723
-7.56053
-28.7235
-15.3045
-4.70455
8.23531
-4.21922
-21.3215
-13.1536
-2.79466
6.60224
-3.81871
-12.8649
-6.88454
-1.93059
4.07145
-0.73938
-13.1088
-3.04276
-0.661794
-7.50022
-4.47929
-7.2119
-3.8047
-2.11624
-0.125438
-4.49817
-8.38398
-6.14421
-2.46038
5.45689
-3.91003
-15.238
-9.12802
-2.84753
17.3665
-7.01085
-23.4331
-15.2393
-5.02242
47.5704
-43.3143
-54.7355
-29.0585
-4.86921
115.344
-129.126
-93.7155
-49.1316
-13.9357
283.965
439.551
-107.503
-42.5221
-13.6898
355.341
438.79
441.296
397.851
363.584
439.569
441.862
407.575
324.491
354.255
439.14
439.836
426.586
285.305
437.179
-32.2617
-13.9295
94.3792
-34.6228
-7.43433
34.3564
-27.8446
-46.7541
-23.4356
-5.07353
8.19683
-4.28977
-17.1174
-9.80162
-2.91644
3.24236
-4.0788
-10.5978
-6.18654
-2.06234
1.48208
-2.59737
-7.74126
-5.45918
-2.14655
-2.05045
-2.50997
-6.05393
-3.85815
-1.6111
-4.00272
-3.90236
-6.61362
-4.82862
-2.01384
1.16723
-3.16981
-10.3398
-5.71387
-1.94848
7.76328
-3.22331
-16.38
-9.05533
-2.28063
22.9104
1.05045
-33.8329
-15.8507
-3.1622
36.8554
-20.1485
-43.6124
-20.8298
-4.62233
53.1108
-105.702
-75.4033
-28.0291
-6.91764
69.8414
-159.34
-74.5499
-28.125
-8.73841
78.1572
-194.872
-28.4609
-9.88406
71.3519
-161.617
-80.1161
-27.1605
-6.45796
47.2692
-82.3752
-69.545
-24.9093
-5.66238
30.8712
-17.048
-51.4625
-25.8777
-3.91549
17.3118
-1.98189
-36.7569
-14.6344
-1.58638
6.46191
-2.36307
-14.6727
-9.38351
-1.92592
1.55161
-3.03747
-8.82978
-6.061
-2.29739
-1.6802
-2.42617
-6.06364
-4.88776
-2.2969
-1.54992
-3.9586
-8.96369
-4.68458
-1.62378
4.76771
-2.15227
-15.2212
-6.06999
-1.54522
8.08998
-1.36799
-19.9457
-4.35506
-2.53675
7.86651
-3.61075
-16.9226
-9.28604
-3.23797
10.0382
-6.26094
-22.5773
-12.6272
-3.52284
23.4262
-10.0735
-29.8737
-18.9502
-3.47084
29.166
-19.4244
-23.6585
-3.78048
11.689
-13.7557
-31.6437
-11.2558
-3.55931
7.67896
-5.13311
-19.1049
-10.6086
-3.45463
9.19528
-4.38891
-19.0844
-12.5969
-2.79901
6.93436
-0.293065
-21.8758
-10.0529
-1.32975
3.36164
-1.04604
-14.9104
-4.83335
-0.943205
-1.19435
-3.08408
-8.0238
-4.85773
-1.66797
-2.94851
-5.04005
-3.53561
-2.2442
0.951878
1.70816
-0.61484
0.684125
-3.49281
-9.35736
-4.99477
-1.56641
3.24054
-2.8728
-9.92592
-6.85391
-2.64997
3.81659
-4.16372
-12.3139
-6.31713
-1.86302
7.32054
-2.86906
-14.4216
-9.11708
-1.48797
11.2075
-4.94011
-11.8834
-1.86173
4.23771
-5.59966
-14.9838
-5.8763
-2.06873
4.64752
-4.14911
-10.6305
-5.8798
-1.99193
1.03742
-4.55768
-10.7084
-6.80722
-2.42803
-0.276832
-4.81415
-10.9015
-5.45172
-1.63441
1.13635
2.90577
-17.9207
-8.04058
-0.438447
-9.68576
-2.62982
-1.08422
-6.48866
-3.42149
-5.75346
-3.12421
-1.23792
-2.77374
-3.10986
-5.67119
-4.39503
-2.06561
-0.531772
-2.49354
-7.44861
-4.87784
-2.03513
1.38506
-2.78206
-9.26934
-5.27461
-1.82051
4.94295
-5.54505
-5.37189
-1.14846
0.901234
-5.21657
-10.4052
-5.49029
-1.92678
-2.15973
-4.76413
-7.96113
-5.24464
-2.0541
-3.7101
-4.62738
-7.41424
-5.21848
-2.39635
-5.80198
-4.51712
-7.35447
-4.21341
-1.82061
-7.13605
-2.59936
-6.62332
-3.66337
-1.79958
-4.05785
-6.14097
-1.01148
-0.136448
-7.03436
-4.37436
-8.96658
-3.98266
-1.69353
-4.07182
-2.2817
-6.51694
-7.04996
-5.21193
-4.16198
-2.09448
-1.68685
-0.070402
-4.04707
2.72142
-6.86504
-7.52053
-14.5426
-7.37568
-5.32926
-14.8473
-5.36638
-4.11082
-1.95075
-4.63693
-0.767654
-1.62203
-0.073202
-0.722482
0.0786321
-3.75735
12.9778
-0.504175
-1.29584
-1.82054
-8.57444
-8.98111
-5.3058
-12.2682
-0.674471
-3.84301
-1.82175
-0.670007
0.175746
-1.67388
-0.138004
-1.31335
-2.09871
-7.85232
-8.39326
-5.26477
-3.87702
-2.12989
-1.9044
-0.143616
-3.55769
-3.92774
-6.82219
-7.07785
-5.33721
-4.43162
-2.27214
-1.97694
0.0364257
-8.78286
-3.66457
-4.50042
-3.36864
-4.02173
-6.69617
-3.94908
-5.54385
-6.95546
-5.23508
-6.37755
-5.90103
-4.38617
-2.40915
-5.04248
-3.09888
-2.12732
-0.0174324
-2.44933
-0.288359
-3.7995
-3.18018
-1.85908
-2.5279
-3.79556
-5.65707
-3.42483
-6.13148
-6.46385
-6.07594
-7.34316
-6.73595
-5.20951
-3.20729
-5.88714
-3.58542
-2.46743
-0.362126
-2.71862
-0.39263
-6.87451
-3.05406
-1.61963
-1.97256
-0.478106
-1.19397
-3.2793
-6.31606
-3.2454
-5.53393
-3.21822
-6.66863
-5.47615
-7.31444
-5.816
-7.89707
-7.27532
-9.33973
-8.35828
-3.37254
-3.70743
-1.9468
-5.40317
-3.82577
-5.92419
-3.89218
-1.34708
-0.250806
-2.40096
-0.921281
-2.05608
-0.687093
-2.86327
-0.00293698
3.14882
0.777027
-0.145464
3.45175
4.3589
-7.43373
-3.95348
-14.8817
-3.63468
-7.71092
-7.25063
-18.0384
-6.07794
-15.0003
-7.40112
-9.25799
-7.60054
-18.5036
-9.67727
-2.04222
-1.82071
-1.18991
-4.64336
-3.42381
-2.61781
-0.612089
-0.281773
-0.935218
-0.264043
-1.92531
-0.664692
-0.238089
-0.346818
8.35001
-3.60909
-0.11364
5.34703
14.0347
3.35111
2.28792
-2.08428
-8.35534
4.15062
-0.9851
-9.63988
-9.0873
-5.84777
-10.4707
-10.4423
-8.69028
-0.79122
-3.55421
-1.77087
-13.1935
-2.25325
-6.0231
-3.01777
-0.0931782
-1.48718
-0.482029
-1.21306
-0.531182
-2.23054
-0.917062
-1.41757
-1.48374
2.30648
0.929191
1.60637
0.435746
-7.9911
-1.91331
-5.11463
-2.74844
-7.88426
-2.72105
-5.98124
-6.38495
-5.58941
-4.51378
-10.4031
-9.27918
-7.87294
-6.94655
-2.32529
-3.81084
-2.6045
-5.48
-3.20081
-5.21909
-3.41528
-0.404204
-2.42443
-0.0631002
-2.0129
-0.698512
-2.08418
-0.820244
1.86705
0.465685
0.951479
0.125628
-4.676
-1.99989
-4.3772
-1.30288
-4.42474
-4.2765
-6.48816
-6.53162
-5.58686
-5.50632
-2.56296
-4.98535
-3.41326
-4.72738
-2.91197
-0.0160862
-1.98597
-0.817977
-2.26846
-0.433575
0.533368
-0.119669
-1.30507
-0.846387
-1.3956
-4.17003
-1.32411
-3.90899
-5.2281
-5.10142
-4.88958
-4.11748
-4.43021
-2.77608
-3.09231
-2.28928
-2.22141
-0.324163
-1.79363
-0.335191
-2.037
-0.92186
-1.32976
-4.52839
-4.98576
-4.1122
-3.5388
-2.19232
-1.92217
-0.20787
-0.99682
17.884
-0.631999
-0.155528
-0.193178
-0.018612
-6.95646
-3.44554
0.317533
3.14368
-0.41212
-0.733844
-3.82061
-7.32975
-8.08631
-4.70332
-9.90638
-7.86495
-6.06623
-9.8431
-11.2405
-9.06475
-4.17359
-2.17168
1.32122
-0.91403
-4.31319
-2.09225
-1.74561
-0.265798
-0.546689
-0.16159
-1.19453
-0.422776
-3.16001
-2.43682
-2.45761
-0.504893
-0.850808
0.276098
-0.980547
-6.72591
-4.08232
-6.04429
-4.3423
-8.42941
-4.07094
-7.5456
-6.14531
-7.50648
-7.22882
-10.3985
-9.16828
-9.82156
-9.04445
-2.51109
-5.30486
-3.66849
-5.82457
-3.4801
-6.59637
-4.3564
-0.35435
-1.98518
-0.757765
-1.99145
-0.804123
-2.45848
-0.896612
-8.41855
-7.08981
-18.5657
-3.27953
-10.7406
-0.280611
-24.8289
-9.02351
-19.14
-10.1725
-13.5414
-11.2956
-25.1138
-16.2748
-0.712167
-10.5402
2.11103
-0.106535
-14.281
-11.4344
-11.3992
-10.0342
-17.9634
-15.8936
-13.825
1.74553
0.825444
0.0288818
6.48438
3.68167
4.94002
3.49385
0.0366694
4.46891
3.37885
5.69272
6.1299
-4.61857
-1.62668
-7.09369
1.2685
-13.3592
-4.93164
-9.25902
-7.90749
-13.4252
-7.02716
-2.0849
-4.69075
-2.54196
-2.75847
-1.86557
-0.284326
-1.37575
-0.495552
-1.08187
-0.330612
5.57767
8.90406
3.55099
-14.9842
1.47079
-8.288
-15.0951
-8.11249
-9.19371
-4.75887
-5.87603
-0.00839831
-2.88355
-0.218453
-0.0971552
-0.19815
-0.204981
0.0500131
-3.97613
-3.38847
-4.25076
-6.76237
-7.46587
-5.45972
-4.05924
-1.8605
-1.37515
-0.138451
0.700244
5.13073
-2.38216
-2.64056
1.29119
0.42662
26.718
-4.66872
-7.48586
-3.03222
-12.3392
-27.9281
-8.603
-6.83315
-12.8392
-7.57151
2.53516
-0.636225
-3.4874
-1.76466
-3.22438
-1.73807
-0.426202
-0.242946
-0.995189
-0.312903
-1.12155
-0.517365
-3.05578
-12.7425
-2.0101
-15.2018
-0.0402235
-23.5414
-13.2651
-9.56533
-15.3853
-7.49164
-22.4862
-13.5802
-14.5524
-0.380504
-26.5553
-8.75
-23.3957
-5.05725
-46.4305
-15.1959
-26.5445
-18.4065
-25.3236
-21.4219
-39.902
-31.6727
-0.349158
-17.2675
8.73293
-3.55863
-31.4962
-19.7296
-18.8126
-16.5812
-33.3656
-32.3315
-25.3285
-9.8862
2.35584
-14.7296
4.67172
-17.8022
6.95885
-15.5838
-9.51433
-14.8779
-7.78104
-20.3183
-15.439
-16.1914
-10.3571
11.0335
-0.273283
2.88482
8.59664
8.56992
5.52503
4.78074
1.15575
-7.55523
4.25934
-11.2952
0.491601
-5.24374
-8.47401
-9.11323
-5.61674
-13.9386
-9.61064
-8.39423
-7.48033
-0.206771
-2.42514
-0.313449
-5.51696
-1.62043
-4.07264
-1.93919
-0.116827
-0.303123
-0.166482
-1.15689
-0.507357
-0.993744
-0.436881
2.60607
3.79299
2.86121
1.54165
-6.90702
1.06069
-4.37924
1.09052
-2.3829
-4.80963
-5.97009
-5.62304
-3.02055
-3.44139
-0.417283
-4.52188
-1.70976
-2.83195
-2.21519
-0.0512525
-1.21049
-0.203231
-1.96152
-0.243233
-6.21061
-3.90547
-4.07555
-5.23967
-5.79456
-4.88966
-4.04697
-2.6435
-2.20383
-0.360417
-3.08154
-3.0022
-4.44785
-3.4879
-1.53585
-2.19166
-4.30707
-5.83632
-4.02681
-5.74522
-4.10551
-6.32246
-7.08432
-6.20702
-6.23852
-5.37544
-7.77506
-7.10074
-4.27712
-2.84792
-4.50208
-2.66854
-5.12945
-3.43148
-1.60895
-0.598197
-1.96811
-0.288184
-1.83529
-0.629459
-15.159
-2.67995
-27.3565
-3.58609
-13.1443
0.611118
-25.8135
-10.3054
-24.2282
-17.57
-16.2842
-13.9158
-26.2614
-18.158
-24.481
-5.79808
-21.4
3.73112
-33.3887
-5.82964
-42.1193
-13.6359
-22.4603
-19.7374
-32.303
-18.8265
-45.5518
-31.6401
-41.618
-6.6439
-53.4928
-123.172
-128.337
-120.965
-108.508
-29.6478
-45.369
-34.5626
-69.023
-42.1964
-88.5198
-37.1512
-12.1521
-43.0213
-87.0927
-122.892
-127.906
-35.9432
-42.2484
-32.2284
-37.0482
-96.1613
-45.4903
-19.6717
4.431
-21.221
0.726149
-50.5603
46.8277
-24.4977
-23.7816
-20.2388
-55.9876
-42.2879
-40.6635
-22.5099
5.49662
-14.9314
17.2159
-42.4348
5.74713
-14.9736
-17.0371
-17.1071
-12.8572
-39.5882
-31.5075
-18.3419
-16.9695
4.00195
-2.63331
1.96817
6.54032
4.73034
3.90051
3.42276
-2.65135
1.00826
-1.954
1.49817
-2.79803
1.59071
-1.11509
-5.89913
-3.38966
-3.6655
-6.76421
-7.01718
-4.63254
-5.24935
-2.78412
-3.00022
-2.4062
-5.95242
-4.09716
-4.72362
-3.61337
-0.65449
-2.00545
-0.394564
-2.46905
-1.03731
-2.25632
-1.03334
1.59628
2.48287
2.46849
-2.06401
1.60832
-1.87439
-3.20048
-3.68339
-4.36238
-2.4766
-4.13358
-2.90659
-0.156271
-2.32375
-0.388702
-4.28231
-6.49628
-6.74326
-4.48176
-3.98332
-2.47102
-2.36898
0.394646
-4.92166
-3.52891
-8.36055
-3.73023
-1.53982
-2.71836
-3.91139
-5.51445
-4.06384
-6.35689
-4.10578
-6.01024
-6.07055
-5.21318
-6.5581
-4.52259
-7.17806
-6.59158
-4.35029
-2.69866
-4.08211
-2.47453
-4.77018
-3.15915
-2.0718
-0.340381
-2.31068
0.103612
-1.84074
-0.647408
-38.3367
-10.5664
-56.4723
-40.4063
-63.3435
-112.725
-127.526
-23.8931
-56.0774
-45.3281
-55.052
-34.9161
-105.596
-48.2525
-70.0134
-141.831
-134.874
1.96489
-122.977
-155.467
-44.123
-95.3989
-57.9814
-49.2525
-122.832
-52.448
-146.133
-124.504
-152.94
-139.603
436.96
439.321
-69.3782
-128.66
-51.7833
-125.296
-52.0496
438.465
-21.5677
-36.61
-20.9309
-37.656
-16.6745
-16.429
-2.51944
-10.668
-3.1901
-11.786
-3.00251
-12.9157
-0.906283
-126.519
138.118
-215.631
338.297
432.41
347.997
428.44
-153.168
-209.124
-114.755
438.266
439.106
435.514
438.408
-48.1114
-92.8873
-35.9941
438.421
391.529
438.064
369.003
-24.0402
-30.9054
-24.6278
420.834
-16.8685
446.787
-4.36154
-20.7065
-5.6457
-14.3192
-1.25201
-1.02891
-154.628
120.739
-180.757
348.287
427.786
340.686
426.47
-189.755
-152.296
434.907
437.684
434.874
437.506
-35.6949
-114.888
-48.5926
437.276
406.423
437.184
362.355
-23.8745
-39.0541
-25.5369
431.274
408.777
-20.615
-6.38917
-17.6316
-6.78175
-0.768898
-17.5177
-2.61935
-166.703
-104.595
-144.896
435.239
437.641
432.276
-56.0488
-131.192
-73.0065
437.206
387.975
-58.3246
-25.2615
-43.9578
-27.4769
419.643
-21.4827
-50.03
-23.0437
-5.66353
-13.8328
-3.95985
-18.545
-2.58618
-17.8808
-2.6885
-135.301
-95.6665
-133.639
-134.451
-71.936
-168.536
-76.0002
-108.016
-70.9335
-121.182
-62.3579
-161.8
-64.4555
35.2969
48.8935
37.7872
103.084
0.154925
69.7415
21.6209
-74.9066
21.1534
-54.9936
-28.9656
-93.2271
-50.7764
-49.8001
-44.7295
-89.4192
-58.0588
-23.7874
-38.5322
-19.4954
-57.6644
-31.6127
-44.77
-22.7434
-35.8113
2.81413
-16.9614
-15.5916
-50.8913
-3.92991
-30.0401
-34.2552
-24.0486
-24.6411
-57.6707
-46.1313
-34.8761
-31.2353
2.79629
5.80378
4.18315
2.80795
2.74635
-0.86341
1.59656
-1.82411
1.45601
-2.4907
-4.77613
-5.41807
-5.90692
-3.90894
-4.40169
-3.41506
-5.02427
-3.75726
-3.60407
-1.96608
-1.01344
-2.22946
-0.870779
-1.46314
-0.447584
1.65376
2.25365
1.61156
-2.88435
-3.64034
-3.69563
-2.83221
-1.64536
-1.52048
-0.114233
-9.00542
-4.35299
-1.37419
0.386257
-4.62756
-6.95551
-4.28684
-11.4355
-7.14086
-4.02084
-11.6501
-5.54069
-3.63112
-1.68175
-2.14815
-1.24844
-2.87897
0.176209
-0.903636
-0.204985
-3.03988
-0.431743
-1.52637
-0.081455
-0.707508
1.80738
-0.203138
-7.04319
-4.39537
-7.30111
-5.00845
-10.3262
-4.94496
-9.55827
-5.40001
-8.77033
-8.00553
-10.673
-8.04921
-10.9285
-9.2336
-2.29746
-5.60315
-3.69733
-3.42433
-2.06486
-5.3379
-3.42809
-0.268347
-2.07495
-0.707803
-1.14802
-0.396866
-2.05297
-0.784868
-125.618
-171.492
-137.319
-119.261
-156.269
441.005
-44.9577
-106.533
-49.2275
-100.881
-56.0168
-40.719
-134.296
-142.066
441.103
441.47
435.198
439.361
-46.4456
-126.451
-46.3665
441.318
-38.2814
437.442
375.864
-15.934
-38.4251
-15.9426
-32.1875
-13.5886
426.764
316.287
-2.93592
-11.2189
-1.28961
-9.64012
-0.879784
312.173
436.784
439.432
435.841
438.378
432.918
436.515
-47.8513
438.53
464.053
436.04
406.975
435.453
416.121
-15.8793
428.716
407.449
311.852
419.392
342.422
-1.07186
-11.1338
-0.223334
313.614
11.9013
272.321
5.89493
438.753
434.139
436.793
430.319
435.229
429.405
433.749
406.202
437.994
349.115
434.991
413.761
434.165
443.391
454.443
356.21
443.826
308.547
445.996
242.363
-0.36074
333.162
0.406624
243.639
3.27107
301.101
3.16352
435.977
433.655
437.117
428.411
432.995
427.671
432.725
409.372
436.513
394.271
434.098
434.928
432.271
476.838
324.03
414.486
323.089
425.143
294.814
370.981
289.101
0.59556
-1.60568
293.447
292.897
2.35361
437.483
432.911
436.889
428.784
433.338
430.988
434.286
377.136
436.25
-56.5449
432.762
417.152
432.242
379.732
-48.0389
-21.1341
351.725
216.204
412.907
272.466
-2.21418
-17.8288
-3.19821
231.278
2.72479
307.966
-8.51218
436.885
-73.0134
428.506
434.704
434.466
435.86
-58.4667
-63.0976
434.172
553.846
434.988
412.899
-21.4507
-56.6757
-22.8728
407.144
319.374
396.928
-21.31
-3.98821
-18.1235
-6.85217
299.458
-11.9457
-18.5143
-8.07937
-151.836
-158.937
431.981
436.165
-72.6745
-140.495
-118.42
-75.9174
435.555
412.737
-121.763
-74.9711
-27.9011
-42.932
-26.6969
-22.5463
-48.2988
-35.6571
2.89444
6.74395
5.64617
-3.331
1.90734
-8.67097
-4.31279
-9.57576
-5.70695
-1.70181
-2.86947
-0.88385
-0.194388
-0.725939
-0.276889
0.366369
1.51813
1.45261
2.42255
-3.39832
-13.584
-0.437297
-11.8839
-13.275
-4.40416
-12.3535
-7.87192
0.0719927
-0.982006
-4.06733
-1.62534
-0.593876
-0.124663
-1.18054
-0.365755
2.76755
4.35198
1.51353
4.16945
3.64208
6.86188
6.7046
-13.2789
-3.24083
-14.6033
-0.194953
-12.5658
-1.01156
-19.6389
-5.6205
-14.8885
-10.1858
-13.1942
-9.10037
-20.5829
-6.14764
-1.46431
-7.20793
-2.10618
-6.16083
-1.54597
-1.38384
-2.39426
-15.2954
-5.80231
-19.1759
-2.90923
-21.0643
-7.29576
-12.3385
-21.0942
-17.7401
-21.487
-6.98923
-28.3569
-22.6246
-21.5111
-37.1301
-7.36546
-41.7783
-28.9311
-76.2139
-21.1029
-36.9198
-28.8078
-38.544
-30.83
-69.1759
-39.1052
-85.7758
-168.796
-145.184
-67.1084
-95.5916
-158.111
-144.092
-39.3157
-93.0628
-53.5475
-78.7028
-48.165
-102.575
-41.6703
-151.593
440.886
441.799
-129.569
436.283
440.569
-47.3545
441.379
-38.7936
-106.996
-36.7631
439.822
462.518
-16.5221
-31.894
-13.58
-29.9101
-16.1707
409.251
296.088
-2.1299
-10.6072
-0.949447
-12.2915
-2.18066
308.434
-1.9483
438.508
419.141
439.354
372.562
438.893
385.214
-13.0505
435.91
312.322
351.782
271.08
377.805
152.091
-0.486051
302.255
304.098
-10.2439
283.835
-0.492071
425.49
435.678
358.86
438.944
417.46
436.046
457.418
307.399
418.54
298.185
425.687
269.705
440.784
236.431
2.03584
332.789
4.93825
287.396
-1.26871
223.054
-68.5094
412.811
434.132
441.027
434.831
560.187
433.763
625.569
318.262
444.953
221.5
426.346
242.467
436.157
282.936
0.77218
297.642
4.60831
104.116
278.477
-40.5005
430.752
432.183
415.285
434.717
472.151
434.099
429.48
267.893
363.041
300.67
431.421
7.22826
439.236
193.152
264.544
-1.75833
198.076
-68.4029
376.026
432.993
444.107
433.633
448.046
433.261
422.281
271.989
423.136
292.064
453.461
234.819
382.392
239.497
2.01871
331.478
-3.36741
173.048
271.94
-1.51892
413.19
434.943
410.726
432.801
209.168
430.968
412.001
286.321
419.428
402.582
166.692
432.842
280.252
-17.0944
-6.17114
274.655
2.24221
250.73
2.7727
436.156
-52.1779
-140.673
432.114
432.449
430.079
435.491
422.686
-124.852
-68.9399
431.607
411.883
434.398
-21.8036
-51.9148
-28.4672
433.917
280.944
-51.7705
-24.6473
-9.08837
-21.8945
-3.52338
309.879
-3.35667
-21.1843
-5.62321
-150.491
-126.671
-167.132
429.011
-111.265
-181.439
-80.6915
-125.812
-82.1946
-60.8495
-139.6
-72.9867
-32.2326
-47.3301
-28.7272
-52.3454
-27.9624
-43.7944
-30.4607
-57.9148
-1.7121
-27.5823
-71.4618
-124.726
9.68995
-53.1789
-49.4194
-35.5661
-33.3227
-101.062
-54.3961
-50.0254
-44.7184
-16.9424
3.08143
-13.5607
17.5046
-46.8784
9.49603
-22.784
-16.0488
-14.1274
-44.3013
-36.9881
-22.7993
-12.4501
5.64901
-10.2373
4.71875
-26.9486
7.12445
-12.5843
-12.3821
-11.0356
-7.3994
-24.1422
-18.5869
-14.7519
-10.2075
8.22657
9.02224
9.00967
1.528
4.76277
-11.4245
5.74479
-9.36463
3.32862
-5.53647
-6.88097
-11.3088
-8.75508
-7.20237
-5.3421
-0.464775
-6.02259
-0.898002
-2.91757
-1.1141
-0.370133
-0.652364
-0.373582
-1.00803
-0.330451
4.42715
3.18718
-5.1469
-5.88118
-4.72386
-3.31205
-1.24467
-1.17757
-0.17466
0.854299
0.410219
-2.03355
-0.587588
-0.768303
-3.34878
-7.36958
-2.07706
-4.6297
-2.60139
-5.56476
-8.81814
-7.18375
-5.12886
-4.18763
-7.68829
-6.82119
-3.48086
-1.8655
-3.54342
-2.6319
-4.44119
-3.00547
-1.15888
-0.538683
-2.38895
0.299875
-1.77307
-0.671027
-11.4044
-0.437509
-15.2673
-1.97766
-6.36572
-2.2223
-8.73756
-9.7388
-15.9464
-9.68033
-9.58194
-9.18958
-12.4706
-11.3212
-17.7205
-1.38484
-12.1694
-4.92972
-19.0769
-11.0949
-17.1431
-15.6606
-23.9453
-20.0587
-36.354
-80.1036
-9.685
-34.2846
-71.7825
-96.8139
-73.4354
-37.7879
-34.7577
-25.7203
-76.9277
-40.7947
-33.3364
236.178
-155.584
112.653
-107.773
313.271
436.135
-92.8009
-171.683
-134.725
-154.49
-128.87
439.514
442.206
-42.2353
-108.213
-37.1047
-100.018
-45.5735
441.572
-22.7469
-26.5195
-17.4542
-35.601
-22.8759
-18.2138
-3.88956
-13.2748
-4.62904
-10.8885
-3.52994
-13.6756
-4.2229
-126.598
438.203
439.668
439.668
442.152
436.049
439.17
-35.6141
439.31
403.971
441.074
425.049
438.036
423.606
-16.2031
407.839
295.041
433.528
-15.4694
430.316
217.623
-3.06495
296.38
12.3639
-13.0818
-9.68006
271.539
-0.218599
561.319
437.624
427.255
438.064
358.524
437.45
360.135
269.394
413.691
257.335
418.966
279.465
447.518
126.609
2.24373
316.465
309.449
2.46699
263.077
-96.6721
384.796
439.146
419.117
437.748
439.765
432.091
502.054
199.123
441.689
255.872
439.511
185.931
408.733
168.052
-0.32188
377.774
-23.8834
220.735
338.957
585.743
432.893
600.284
429.377
438.72
422.395
377.573
201.251
437.707
215.419
344
168.661
340.667
260.965
-21.3798
236.331
-43.2468
232.681
254.906
450.277
420.471
416.224
419.635
416.093
420.996
416.333
418.892
431.359
424.943
431.671
423.145
420.856
423.006
425.461
480.701
433.308
502.493
421.956
376.526
421.603
356.275
179.103
456.01
74.3394
341.746
260.581
277.225
258.283
177.354
253.312
412.872
255.409
637.072
459.922
435.012
208.253
426.271
393.5
430.876
440.454
210.78
396.388
226.449
269.343
203.155
445.096
246.517
396.671
1.28117
224.84
602.407
266.311
382.496
430.232
413.54
431.482
560.386
430.194
400.383
199.233
429.365
318.251
441.946
241.174
424.634
196.186
-21.377
276.179
-4.56778
316.237
230.826
-1.62582
431.825
432.478
435.214
426.596
430.418
432.368
434.087
440.772
434.317
429.716
445.396
433.138
360.016
295.288
-24.118
425.493
225.179
342.627
289.429
-6.62898
-20.8229
-7.28125
253.165
-17.716
290.57
-4.02585
417.796
166.965
-38.9446
330.515
421.144
183.1
-92.521
435.377
-145.053
-185.955
434.315
435.458
-116.395
-183.78
-54.2687
-137.644
-56.0647
434.143
328.629
-139.231
-63.9842
-26.0732
-48.9852
-30.768
389.808
296.305
-52.2326
-27.8176
-7.994
-18.7462
-7.34793
-6.60823
-19.4344
-7.61352
-139.305
32.0754
-114.032
-173.83
-2.55018
-64.1714
-56.5269
-44.3399
-134.143
-67.7868
-66.95
-47.0227
8.82488
-25.4428
5.92753
-40.1617
1.89016
-15.7065
-24.4183
-20.7978
-43.9827
-32.164
-23.0364
-21.7089
-17.0327
4.24382
-10.3753
3.73735
-8.36638
3.26219
-4.80328
-15.9393
-12.2225
-10.1167
-15.2278
-15.3459
-10.8181
-11.1447
6.80739
1.62303
4.45779
8.03595
6.29796
3.7021
3.68787
-5.48031
2.26449
-4.52722
2.27595
-3.22225
2.37801
-1.73794
-8.1863
-5.97634
-5.02036
-7.23726
-7.51712
-3.30444
-4.27235
-2.94763
-3.55749
-2.08357
-5.62051
-3.98815
-3.84003
-2.86799
-0.877969
-1.73517
-0.373538
-2.22144
-0.757176
-2.31851
-0.380563
3.85524
0.903585
3.09562
-4.41075
2.65612
-1.56324
-4.29311
-2.41152
-3.51773
-1.80299
-3.35708
-2.84141
-0.182535
-2.53885
-0.218209
-3.42228
-4.52258
-4.32964
-3.76872
-3.23406
-2.76922
0.231102
-2.07474
-0.2477
-0.771913
-8.51047
-2.28936
-0.0983936
-0.720153
-4.41384
-2.09586
-4.79145
-2.08131
-3.52894
-1.94804
-4.43023
-4.1451
-7.30244
-6.55206
-4.68027
-4.87237
-7.02434
-6.51231
-2.81128
-4.94079
-3.65325
-4.10475
-3.26478
-5.16059
-3.9567
0.25434
-2.31617
-0.912893
-2.56512
-0.32577
-2.54665
-1.00288
-154.541
439.648
442.043
-79.567
-143.691
441.144
441.422
-43.6872
441.366
-117.807
-51.9543
441.1
433.446
-20.0532
-16.8272
-39.8889
-17.0491