/*--------------------------------*- C++ -*----------------------------------*\
| =========                 |                                                 |
| \\      /  F ield         | OpenFOAM: The Open Source CFD Toolbox           |
|  \\    /   O peration     | Version:  4.0                                   |
|   \\  /    A nd           | Web:      www.OpenFOAM.org                      |
|    \\/     M anipulation  |                                                 |
\*---------------------------------------------------------------------------*/
FoamFile
{
    version     2.0;
    format      ascii;
    class       volScalarField;
    location    "100";
    object      p;
}
// * * * * * * * * * * * * * * * * * * * * * * * * * * * * * * * * * * * * * //

dimensions      [0 2 -2 0 0 0 0];

internalField   nonuniform List<scalar> 
146404
(
-7.97028
-3.86457
-10.0413
-6.00575
-12.4683
-7.9976
-4.03121
-2.07601
-6.61304
-22.5742
-2.38391
-6.48603
-3.24412
-10.5404
-6.48227
-3.50737
-6.91193
-6.15745
-4.12979
-9.43684
-7.52181
-11.3177
-8.65799
-4.36953
-4.99827
-7.16618
-11.7045
-10.7133
-4.92689
-0.596906
-7.276
-18.807
-14.7971
-4.87623
0.162391
-6.31865
-15.8562
-11.799
-4.75151
5.42215
-0.335908
-21.4836
-4.36563
4.34522
-4.88432
-15.4911
-11.7368
-4.99954
2.76732
-3.14286
-10.1011
-9.63604
-4.97585
1.88796
-1.67012
-8.10065
-7.91209
-4.08016
0.186105
-0.837576
-6.88911
-5.60599
-3.21263
-3.50996
-8.78739
-3.21262
-1.98276
-7.90457
-17.799
-12.5459
-5.89821
3.86376
-8.04521
-25.5011
-20.8466
-8.22481
6.96339
-11.1402
-33.8516
-28.3382
-9.5126
9.25723
-6.59588
-26.1182
-22.0051
-10.927
16.34
-5.45022
-38.0147
-10.648
13.6333
-7.33866
-27.1557
-25.4818
-11.9331
17.4317
-4.97542
-26.4991
-24.5681
-12.3687
11.627
-0.433054
-16.0308
-16.1306
-7.78847
9.95097
-2.53961
-12.721
-7.65582
-4.55206
12.2216
-10.8692
-7.54995
-1.41736
10.3841
-1.55972
-1.34887
-1.13886
-9.15296
-12.0924
-16.0426
-10.6196
-4.15
-2.06141
-11.4877
-24.033
-12.8649
-5.72624
7.60036
-0.583775
-29.8829
-13.3201
-10.5245
15.0433
-10.8734
-36.8372
-33.7298
-12.8953
26.1903
-29.6458
-58.9433
-66.9712
-14.1702
40.1865
-29.29
-74.1983
-56.3783
-13.4167
51.1673
7.40989
-105.84
-14.0848
40.7862
-22.6609
-74.7589
-58.1248
-18.8102
32.5743
-18.2517
-57.8808
-58.4361
-22.1312
29.2125
-1.78774
-34.6661
-38.5311
-16.2703
25.3764
4.05573
-27.5445
-11.5894
-9.06773
18.7404
11.0986
-7.97632
-8.21055
-5.06154
13.08
9.68749
0.22472
-2.90343
-2.42097
10.4553
4.02014
0.0958589
-1.44385
-11.0192
-12.0774
-14.4635
-10.6027
-4.49531
-4.61682
-13.64
-25.6968
-15.682
-5.27279
1.42281
-15.4464
-33.7651
-24.9057
-8.68181
24.8333
-14.4332
-57.7898
-28.8947
-12.0445
60.4201
-18.9245
-99.5734
-114.891
-22.2953
107.361
-71.2199
-157.651
-155.553
-32.5451
121.097
-90.0989
-152.847
-158.28
-37.1532
152.416
-60.9127
-146.871
-32.269
121.087
-106.726
-156.716
-154.711
-47.4274
100.055
-71.0968
-138.502
-178.331
-56.4476
69.513
-0.441325
-90.7055
-155.304
-42.2475
47.0318
26.7003
-40.3116
-59.0976
-23.8351
28.8399
12.241
-15.4294
-21.1776
-11.432
20.0274
10.6187
-2.98554
-7.64253
-4.19086
13.3797
11.4257
2.86802
-2.76103
-2.43366
-13.702
-12.0405
-14.8388
-9.14377
-4.12722
-5.91701
-14.3924
-19.4552
-14.9055
-5.33118
-1.03106
-15.7448
-38.2366
-24.9402
-8.05363
12.0772
-30.2244
-87.3907
-49.2413
-13.0143
57.9232
-115.945
-172.269
-129.737
-17.1924
144.876
-99.2406
-158.458
-169.14
-27.7691
314.007
436.832
-137.819
-21.693
384.057
435.06
436.473
411.439
387.405
432.141
435.905
429.768
305.411
373.578
431.635
435.35
423.151
307.511
430.848
-151.02
-43.8341
186.808
-103.715
-73.1085
84.5292
-9.19054
-64.5388
-129.618
-49.239
40.3772
10.2859
-41.3042
-59.6747
-23.3298
27.0918
17.9182
-10.2256
-18.9557
-8.2405
19.4515
11.0942
-0.983509
-5.15105
-4.33098
11.7306
10.8365
1.92632
-0.280649
-1.36764
-5.06039
-11.2385
-21.6599
-7.48959
-3.09551
-2.12954
-14.2882
-26.0443
-15.128
-5.27679
6.01249
-19.041
-43.8555
-29.3179
-8.81389
36.4055
-73.8598
-122.762
-65.4668
-14.2514
121.603
-158.151
-203.491
-136.023
-18.213
374.856
438.315
439.188
-14.3982
414.069
431.725
435.361
406.544
304.464
415.374
428.22
432.818
438.696
331.354
414.155
426.808
433.016
425.786
283.916
410.592
426.648
431.437
417.255
331.729
392.651
427.118
432.248
400.034
294.04
351.617
433.112
433.844
424.892
-64.2611
186.657
-20.1717
-61.0045
-127.826
-81.2007
67.5106
5.77556
-67.666
-117.503
-42.2804
38.8141
19.3159
-20.8323
-28.6207
-14.3661
24.4648
15.4496
-7.97096
-9.07948
-5.05459
17.367
12.9527
-5.2057
0.810406
-1.67354
-3.49811
-8.37874
-17.8703
-10.5066
-4.80588
4.14941
-3.07188
-27.6621
-14.0596
-7.26108
25.026
-39.2069
-10.7064
82.775
-80.5548
-167.657
-121.072
-14.0168
303.394
-205.908
-124.389
-9.27664
414.867
432.487
437.289
392.52
275.049
418.235
428.904
436.409
379.383
266.49
416.355
425.24
435.286
432.16
334.045
414.581
422.605
431.283
432.648
213.219
414.278
423.82
433.148
455.697
316.125
410.404
424.884
432.749
352.27
296.962
389.483
427.803
428.761
430.739
312.421
309.892
430.544
433.569
-110.107
-64.8863
107.814
6.97497
-55.547
-114.466
-49.8745
50.601
94.2623
-183.671
-20.2424
26.883
17.5783
-16.7935
-11.4426
-6.13112
16.0041
8.35605
-5.20528
-4.28214
-3.58711
9.52447
-1.1584
-1.24427
-1.45771
-7.0531
-10.509
-8.45557
-4.71806
-1.08591
-7.66292
-19.5455
-13.6148
-4.74446
6.67126
-12.1214
-38.6913
-26.5393
-8.30945
30.486
-29.5282
-72.9345
-53.4351
-12.6642
99.4073
-73.0119
-177.101
-122.477
-25.818
382.053
437.828
438.777
439.372
2.13859
418.239
431.306
436.044
388.759
261.818
418.102
426.998
434.84
459.218
164.493
415.661
421.999
426.29
290.525
232.582
409.266
418.214
415.88
339.208
259.857
411.771
419.59
421.52
290.494
225.132
413.147
423.386
431.71
440.559
177.745
401.091
424.508
429.176
413.205
257.536
352.598
431.995
434.503
385.204
311.542
141.634
-29.9871
-71.0669
-146.642
-76.8651
40.1708
14.0904
-42.4528
-58.5829
-21.449
23.638
8.34268
-11.8177
-17.9838
-8.56685
16.2363
9.79138
-2.07538
-8.60854
-5.16193
8.25648
9.22976
1.73318
-2.08611
-2.5998
-13.4599
-6.7101
-10.2583
-8.57529
-4.62882
-0.554272
-7.19543
-19.2324
-14.039
-5.02255
7.6805
-12.2681
-38.7729
-28.2644
-9.1363
33.8048
-31.461
-79.2786
-60.8435
-12.301
119.573
-64.4028
-180.111
-132.179
-29.6494
386.922
438.958
438.497
422.825
418.935
432.049
436.967
442.651
331.694
418.898
427.305
443.581
451.358
205.392
413.714
421.694
420.381
332.388
278.769
409.797
417.56
406.763
339.733
268.685
407.544
419.601
414.496
334.866
264.241
414.172
423.746
429.828
456.127
212.707
403.879
425.11
430.214
442.754
260.965
356.789
431.393
432.986
416.415
314.961
148.795
-38.6889
-91.1513
-150.914
-59.8274
35.4344
2.66753
-43.4671
-52.9515
-19.6134
23.2165
8.37971
-14.0585
-18.8072
-8.72012
15.4209
9.53156
-2.68893
-9.47034
-5.26465
7.64229
8.72073
1.17859
-3.00779
-3.18638
-6.50311
-10.0294
-7.88848
-4.67597
-2.28244
-6.33451
-15.3796
-12.0265
-4.61973
7.32712
-6.01033
-27.0353
-24.029
-9.42592
35.8618
-12.9778
-68.749
-69.7425
-12.4743
127.616
-60.3088
-134.186
-162.673
-36.7197
377.071
438.122
439.109
414.687
-22.2491
417.136
433.02
436.882
428.474
279.793
420.206
429.713
439.85
439.848
214.04
418.177
424.42
428.823
323.859
233.186
415.01
421.289
420.631
331.556
270.796
416.235
422.416
425.915
327.827
261.361
413.558
426.468
434.864
443.035
145.13
400.225
428.163
431.505
352.958
265.697
339.378
435.362
435.159
423.699
317.888
112.531
-58.1009
-91.9828
-152.347
-32.1374
42.8422
12.964
-45.0969
-66.5998
-15.8316
22.6886
11.7316
-12.4995
-18.346
-5.90071
12.6625
7.86248
-4.00082
-7.30469
-4.65357
6.18417
7.92059
0.7797
-3.0331
-2.86508
-0.0935543
-6.5915
-16.817
-8.20855
-3.88883
8.86046
-4.08607
-26.8794
-7.96394
-7.76289
28.6365
-21.0764
-12.692
78.3498
-42.6663
-126.579
-168.928
-29.5363
290.866
-133.604
-152.754
-30.6188
399.062
434.708
437.662
438.843
293.073
417.146
431.401
437.032
435.215
229.657
419.351
429.811
434.826
454.509
323.971
419.108
432.755
442.901
443.599
228.897
415.525
428.272
435.231
431.938
261.845
409.13
428.315
432.681
374.619
261.758
385.942
432.865
432.405
374.443
300.855
292.369
433.742
435.623
-166.518
-45.0316
68.2747
-43.3867
-123.702
-182.187
-18.2214
28.9398
-3.76066
-89.7632
-10.58
16.1432
19.9475
-21.2184
-17.369
-5.3006
9.86423
11.1381
-8.54536
-8.14281
-3.83448
7.0823
-2.92222
-3.77736
-2.52494
-3.01556
-7.60037
-18.0274
-8.00003
-3.5941
1.96394
-8.13388
-18.7931
-14.1561
-6.28831
11.2258
-10.5899
-35.5003
-32.8473
-10.8357
38.2463
-32.5482
-84.9758
-82.1635
-20.0083
133.738
-67.8803
-141.756
-157.552
-39.0543
336.264
440.145
440.85
-43.9204
394.624
435.207
437.017
431.101
265.099
406.492
431.179
435.4
448.085
252.781
408.467
430.671
439.593
360.195
167.454
403.381
430.342
434.148
442.695
263.293
385.741
434.132
432.873
404.568
290.215
339.224
435.79
436.235
341.318
-9.61584
94.8252
-111.51
-170.568
-156.606
-22.1903
14.0241
-17.1225
-48.6632
-40.473
-14.8115
6.13981
-6.06822
-31.8131
-26.9406
-7.06973
4.67664
-7.99286
-18.4452
-11.8847
-5.33711
2.71628
-5.83382
-17.5999
-5.54695
-2.59207
-10.9426
-6.9352
-10.9081
-7.75371
-4.18705
-2.76408
-7.22738
-12.652
-10.8989
-5.28041
3.88077
-6.22348
-22.7486
-18.2352
-7.5587
18.8789
-8.61591
-38.1868
-44.7021
-14.6955
54.6302
-29.8499
-107.506
-143.161
-23.0208
124.314
-42.4916
-87.8701
-159.485
-55.9655
284.334
436.897
-112.234
-147.828
-38.5662
353.299
436.513
438.938
393.934
362.486
436.793
439.611
403.091
318.955
351.494
436.252
437.85
423.476
283.055
437.188
-157.798
-25.4228
98.4024
-177.419
-15.4194
36.833
-32.5174
-91.4367
-81.9913
-14.1868
5.55292
-8.53429
-27.9047
-22.3111
-7.74392
-0.0896999
-7.93261
-16.9656
-12.5033
-4.90002
-1.78799
-6.29336
-12.6039
-10.0857
-4.60485
-5.13463
-5.65647
-10.4064
-7.10984
-3.5219
-6.84435
-6.39745
-9.93571
-8.35651
-3.88614
-1.2356
-5.83536
-14.691
-11.2594
-4.91318
6.74283
-5.68776
-23.4424
-21.477
-7.36862
24.0233
1.97757
-45.905
-34.6002
-11.9734
39.1704
-21.0509
-77.0385
-100.866
-16.5806
54.7775
-58.13
-128.429
-126.585
-17.6756
73.3026
-111.531
-137.688
-122.341
-26.4106
82.9736
-123.707
-161.86
-22.7824
71.5144
-110.183
-156.354
-120.159
-12.6045
50.0491
-60.4963
-139.02
-113.71
-14.3463
31.514
-14.8563
-84.7346
-108.285
-10.2037
15.2297
-6.76784
-53.6351
-30.0713
-7.37292
3.1324
-7.12421
-23.0715
-18.8062
-5.31914
-2.11197
-7.0844
-14.3999
-11.7669
-5.0433
-5.41022
-6.2131
-10.632
-9.21812
-4.48552
-4.37753
-6.75072
-12.4564
-8.56143
-4.07633
2.02693
-4.70538
-19.5577
-11.4798
-5.11214
5.73013
-5.82621
-27.4046
-12.0628
-6.52709
5.47669
-8.83291
-25.6879
-22.8399
-9.99801
7.3018
-14.0585
-35.2411
-27.8255
-11.1668
21.262
-17.55
-46.0011
-41.2943
-11.5833
26.9694
-22.9417
-54.6858
-11.0374
7.92665
-20.0522
-49.9319
-25.5918
-9.95368
4.27437
-11.054
-29.1784
-24.1393
-9.8435
6.26672
-8.61923
-28.6723
-26.9365
-6.56328
3.31211
-3.91792
-29.656
-17.375
-4.76005
-1.00293
-5.68089
-20.5407
-10.9011
-4.0519
-5.49097
-6.96736
-12.3606
-8.9774
-4.43891
-6.34501
-9.39447
-7.47158
-4.25605
-2.61396
-1.85079
-3.16728
-2.95562
-7.44883
-14.3767
-9.97531
-5.03747
-0.387553
-6.32954
-15.8395
-14.4271
-6.47968
-0.704597
-7.874
-19.1244
-14.5017
-5.27375
3.23514
-7.70123
-22.3751
-18.619
-5.15176
6.80505
-9.48024
-20.034
-4.8607
-0.77667
-12.2059
-24.4514
-12.813
-4.87695
0.1755
-8.56905
-17.1824
-13.1127
-5.11208
-3.2054
-8.90824
-16.6982
-13.4221
-5.76708
-4.75005
-8.91512
-15.7976
-10.3452
-4.58173
-3.5851
-1.12223
-22.8393
-12.2779
-3.29863
-13.6977
-6.19321
-3.46963
-10.5427
-6.86842
-10.7659
-7.42037
-3.97849
-6.92787
-6.90841
-10.3306
-9.21322
-4.71048
-5.17407
-6.67414
-12.8446
-10.4282
-4.76859
-3.49224
-7.54205
-15.0348
-10.2553
-4.69405
-0.337372
-9.48696
-11.4197
-4.59507
-4.31902
-10.6671
-15.904
-10.074
-4.59319
-7.23687
-9.52862
-12.8725
-10.3949
-4.66922
-8.54085
-8.76626
-12.1907
-10.2366
-4.99647
-10.6027
-8.35778
-12.0118
-8.57523
-4.33961
-12.0932
-6.73411
-11.7663
-8.33408
-4.1602
-9.44945
-9.58893
-5.60447
-3.09864
-12.6385
-8.9444
-14.2687
-8.69383
-4.18557
-8.38312
-4.57486
-10.5867
-11.233
-9.18962
-8.16769
-5.00256
-4.14371
-0.335592
-7.20999
0.442166
-11.2791
-10.7406
-19.3468
-11.7752
-9.30417
-19.8682
-10.2125
-8.03804
-4.85694
-10.5412
-3.16545
-4.05263
-0.351092
-2.84998
-0.33436
-6.76669
10.7549
-1.54226
-6.20432
-2.76873
-10.3048
-10.8187
-7.65305
-22.6568
-2.8662
-6.14204
-3.93061
-2.60913
-0.305695
-3.40788
-0.379025
-2.27986
-3.2873
-9.5743
-10.1691
-7.58991
-6.17559
-4.0677
-3.50092
-0.380181
-7.13613
-7.42098
-10.7581
-11.217
-9.28174
-8.22017
-5.10633
-4.30374
-0.263456
-13.3137
-7.18999
-8.45712
-6.79257
-7.418
-10.5388
-7.19455
-9.33635
-10.9716
-9.25617
-10.5202
-9.92103
-8.21578
-5.2119
-8.99081
-6.06864
-4.41077
-0.309874
-4.62885
-0.8073
-7.61734
-6.49132
-5.40942
-5.80033
-6.91031
-9.24339
-6.57319
-9.94147
-10.3995
-10.2465
-11.7033
-11.2229
-9.38122
-6.44015
-10.5519
-7.0124
-4.86137
-0.864447
-5.2682
-1.0184
-10.5039
-5.71812
-5.0792
-5.26095
-3.80953
-4.37994
-6.1197
-10.4021
-6.32868
-9.15092
-6.23513
-10.448
-9.82408
-11.3884
-9.94633
-12.4919
-11.9168
-14.1757
-13.3522
-5.84451
-7.9693
-5.38356
-10.2851
-7.66361
-10.9871
-7.95028
-4.0626
-0.653877
-4.56507
-1.79607
-4.67809
-1.84374
-5.42626
-3.09004
0.741997
-2.38066
-3.14388
0.583968
1.70558
-11.5088
-7.48243
-19.7012
-6.73452
-11.4962
-12.1836
-22.9511
-10.2629
-20.1371
-11.5053
-13.8431
-12.4093
-24.0178
-14.4412
-5.30321
-5.80239
-3.94928
-9.2284
-7.39876
-6.4599
-4.30309
-0.732014
-3.08042
-0.663689
-4.83348
-2.04756
-3.53419
-1.59562
5.76055
-6.10376
-1.40187
2.86616
11.5745
1.2975
0.50465
-3.01128
-9.98628
-1.59827
-2.63896
-11.361
-10.8325
-8.31812
-16.6005
-12.4836
-11.5466
-2.96486
-6.0232
-4.31478
-20.7831
-5.30503
-8.94748
-5.9392
-0.512079
-3.37544
-0.672527
-4.03683
-1.60312
-4.50611
-2.00727
-2.37748
-2.35254
0.593186
-0.857038
0.0302396
-1.24462
-9.4885
-2.65115
-6.6273
-4.28882
-9.30395
-4.07476
-7.17979
-8.65263
-7.30084
-7.00723
-12.5422
-11.6553
-9.66878
-9.28391
-4.50807
-6.2848
-4.45671
-8.14539
-5.97816
-8.39465
-6.45872
-0.667906
-3.92418
-0.400644
-4.29703
-1.84694
-4.42059
-1.92229
0.320195
-0.905365
-0.472245
-0.680861
-6.16191
-2.90174
-5.38257
-1.78483
-5.41609
-6.74177
-8.16168
-8.70719
-6.97852
-7.87901
-4.52063
-7.75495
-6.03661
-7.48393
-5.51175
-0.381682
-3.97313
-1.74096
-4.33423
-0.872792
-0.731586
-0.632394
-2.01664
-0.246192
-1.59835
-5.14597
-0.708572
-4.75433
-6.65928
-7.37825
-6.32195
-6.33784
-7.00241
-5.09399
-5.55046
-4.21736
-4.08493
-0.803074
-3.47114
-0.682706
-2.58193
-0.112039
-0.580789
-5.61454
-6.35357
-6.1406
-5.5446
-3.80968
-3.37303
-0.349994
-8.04764
12.0933
-5.529
-3.83604
-3.11632
-0.568036
-11.6664
-7.08149
-6.20207
-1.79295
-5.57019
-5.35146
-7.37404
-11.216
-7.48676
-8.28516
-13.5217
-11.8685
-10.1382
-14.1262
-15.4124
-13.512
-8.09211
-5.33155
-3.11182
-4.74497
-8.74989
-5.9383
-4.02659
-0.649574
-3.53966
-0.66289
-3.92041
-1.60474
-6.92375
-6.36524
-6.09977
-4.93115
-5.03294
-3.5518
-4.67498
-10.5078
-7.52074
-9.64801
-7.90852
-12.2083
-7.56171
-11.6348
-10.2914
-11.688
-11.7545
-14.4986
-13.8206
-14.635
-14.4154
-5.87692
-9.52024
-7.51123
-10.3983
-7.58369
-11.9405
-8.82857
-0.77944
-4.27243
-1.75998
-4.98664
-2.15706
-5.37299
-2.22257
-12.7515
-12.0167
-23.7614
-6.39051
-15.3787
-3.93233
-32.8769
-15.2555
-25.1414
-15.649
-20.301
-19.7262
-34.2824
-24.4074
-2.44765
-12.6805
-5.83392
-1.00448
-17.6592
-18.2411
-13.9304
-13.341
-27.5415
-20.4951
-20.371
1.08115
0.322086
0.339986
6.1927
3.39235
5.24952
3.80893
0.611149
5.42964
4.02511
8.02902
7.30654
-5.63849
-2.06684
-8.17021
-0.0131628
-15.0758
-6.73605
-10.5546
-9.52596
-14.8311
-7.14487
-3.9681
-6.52627
-4.62123
-2.28955
-3.46548
-0.664421
-3.45992
-1.55616
-2.40873
-0.605677
8.66034
10.2872
0.207659
-16.9139
11.0602
-1.80909
-17.0322
-6.86886
-3.54854
-3.22666
-4.31745
-0.873677
-1.84142
-0.628128
-1.13077
-0.347763
-0.768366
-0.364144
-12.5136
-10.9648
-11.6359
-13.7655
-14.2926
-11.2734
-9.45368
-5.65555
-4.28005
-0.750804
-6.54753
-2.21887
-10.8286
-10.33
-6.60541
-7.57502
17.3577
-12.0361
-14.6484
-11.9398
-20.1722
-36.7669
-15.3923
-13.1526
-20.4502
-14.0455
-1.36452
-4.49617
-8.87538
-6.25747
-8.69633
-6.33697
-3.31845
-0.641401
-3.83835
-1.56211
-4.0297
-1.68061
-6.8701
-16.9511
-11.4437
-23.4484
-1.90365
-29.5562
-17.9828
-14.775
-23.3695
-14.1225
-28.5956
-21.699
-19.8304
-3.97861
-35.4149
-11.9247
-31.0928
-5.06564
-67.9199
-27.8706
-36.793
-27.7399
-41.2438
-43.8288
-63.8316
-60.8399
-0.870524
-20.9865
3.86835
-0.129238
-40.4886
-31.2212
-24.2529
-25.8398
-70.5129
-46.452
-48.7713
-11.6548
-1.50104
-16.1279
2.69018
-20.8081
18.4145
-8.32855
-11.8177
-16.187
-6.74104
-23.2589
-19.1317
-10.778
-11.5324
11.1241
5.54412
11.4204
15.1771
16.6476
12.8495
12.8514
10.7646
-0.312864
14.7356
-3.71735
9.68576
2.97582
-7.2268
-3.38708
-3.60245
-8.62888
-9.80254
-2.9346
-4.46779
-1.57557
-1.40816
-1.23209
-6.68978
-3.7112
-3.47237
-2.72539
-0.808727
-1.14436
-0.431289
-3.09098
-1.4148
-2.69101
-1.32609
11.2028
11.6535
11.3739
10.6913
0.178151
9.98319
3.13292
10.2229
5.01547
-2.44452
0.206289
-2.45351
3.61517
-0.113961
-1.21134
-2.62091
-2.18658
-0.0828807
-1.52371
-0.368536
-2.20269
-0.563643
-1.43116
-0.438068
-15.0007
-11.8546
-11.6729
-12.6884
-13.0467
-10.9232
-9.4505
-6.05737
-4.52216
-0.710653
-11.5818
-10.9376
-13.1878
-11.6578
-10.1175
-10.5989
-11.9169
-13.1402
-11.8384
-13.1035
-12.2135
-14.2591
-14.0988
-12.6207
-13.3451
-11.4846
-15.2975
-13.8877
-9.7147
-7.22651
-9.89344
-6.38205
-10.8302
-7.83981
-4.22139
-1.70494
-4.60503
-0.79375
-4.4163
-1.74415
-24.1632
-3.93873
-34.0236
-13.6835
-24.1597
-11.3151
-40.4546
-17.8902
-30.8267
-28.4608
-27.6303
-24.8881
-42.2917
-33.8905
-30.6013
-9.33191
-28.357
-8.43315
-50.1238
-4.74752
-54.2494
-22.9382
-31.9831
-34.1082
-50.1671
-37.1437
-65.7479
-67.9948
-53.4362
-3.49494
-79.8013
-79.47
-125.521
-59.5776
-137.199
-77.6629
-75.2024
-79.3856
-146.346
-144.867
-148.174
-166.729
-6.08427
-54.8157
-9.15833
-75.492
-143.925
-92.6351
-64.6079
-69.5476
-159.389
-160.989
-161.863
-21.3572
2.93994
-24.0881
3.47171
-57.1662
68.3383
-39.9081
-28.3406
-27.5747
-77.3968
-112.883
-83.0826
-25.6597
17.763
-6.55742
37.5588
-36.4637
17.8015
-4.52954
-20.008
-12.0122
-13.8583
-37.6368
-58.0276
-11.8439
-20.2652
12.9404
5.88747
11.1795
16.1085
14.336
13.3195
12.9112
5.48836
10.1529
5.85907
11.1164
5.4552
10.9374
7.31737
-2.29479
3.19158
-0.143662
-0.525836
-4.10766
2.23034
-1.04488
-2.80615
-0.310159
-1.68719
-5.80888
-4.62257
-3.31224
-3.30059
-1.19087
-1.57181
-0.49974
-3.83626
-1.78297
-2.66781
-1.27477
10.8611
11.918
11.8736
5.4284
11.051
6.14701
0.148519
3.27941
-0.58929
-1.57057
-1.88556
-1.97275
-0.376253
-2.00678
-0.521471
-12.2533
-14.2545
-14.2972
-10.1387
-9.5929
-5.0712
-4.66214
-0.180479
-13.6682
-11.7512
-17.2831
-11.7587
-10.3904
-11.2329
-11.856
-13.0464
-11.9679
-14.0951
-12.3958
-13.92
-13.3648
-11.4574
-14.1349
-10.2466
-14.6261
-13.136
-9.90085
-6.36257
-9.40676
-5.18584
-10.0571
-7.09725
-4.66255
-0.781083
-4.49452
-0.236254
-4.05923
-1.55704
-56.5814
-6.86272
-73.2362
-47.1608
-97.8339
-84.5897
-143.22
-48.495
-81.2632
-107.861
-113.092
-108.828
-149.771
-184
-84.7979
-80.5979
-101.409
-3.27579
-80.8746
-126.568
-116.681
-130.876
-173.573
-173.84
-131.275
-144.106
-111.143
-79.0923
-132.629
-129.138
435.175
437.633
-186.228
-151.08
-178.679
-132.514
-147.621
436.969
-78.9079
-149.78
-76.8568
-135.573
-64.107
-49.3609
-6.62448
-35.8862
-8.7308
-31.4381
-5.85704
-27.9734
-1.13393
-93.5634
151.759
-115.33
337.804
430.785
351.645
426.846
-136.36
-84.4428
-138.978
436.415
437.528
433.499
436.617
-175.939
-147.891
-160.251
436.809
388.272
436.302
365.969
-80.3358
-152.4
-64.392
419.117
-44.6395
443.276
-7.86363
-31.9882
-5.51446
-29.8954
-0.219274
2.7083
-102.052
129.3
-123.126
350.995
427.131
342.083
424.322
-109.882
-139.684
433.506
435.936
432.732
436.152
-151.317
-157.015
-165.484
435.691
402.432
435.808
360.406
-62.6381
-151.713
-86.5148
428.718
406.236
-46.9798
-5.84124
-41.9785
-9.52158
4.37079
-29.7598
1.60816
-141.881
-65.7474
-117.173
433.653
436.387
432.433
-168.401
-140.655
-186.928
435.911
385.55
-161.639
-95.6699
-162.214
-107.157
417.443
-50.0021
-156.105
-79.815
-10.6926
-53.3992
-12.9319
-30.7375
0.0766934
-43.0229
-2.43834
-84.702
-46.3455
-81.9294
-111.244
-68.0371
-85.0153
-182.58
-112.088
-160.825
-122.427
-157.682
-99.5799
-161.77
44.3377
60.1922
51.7168
116.292
43.7628
85.7907
45.5459
-70.0122
41.5103
-50.9113
11.4687
-55.6451
-146.774
-49.3737
-88.8685
-72.2542
-116.476
-134.671
-95.3256
-90.9764
-156.647
-153.31
-133.485
-144.9
-22.7191
16.5847
-2.80381
6.07599
-29.7404
12.3414
-10.5811
-62.7455
-21.3923
-31.6095
-64.876
-106.153
-36.8554
-55.478
12.3871
15.99
14.0506
12.3938
12.4039
7.87171
11.2835
6.78245
11.0939
5.42029
-0.267868
1.40254
-1.78322
2.88655
-0.192787
-2.41985
-3.86714
-3.28715
-0.473385
-1.36809
-1.20697
-2.98776
-1.39335
-1.47706
-0.502794
11.0926
11.9314
11.2344
4.58156
3.24801
0.222167
0.331651
-0.877839
-1.30925
-0.260794
-17.8608
-12.3539
-9.73682
-8.0976
-12.535
-14.6939
-13.3835
-19.8264
-14.6646
-9.97073
-19.4006
-11.2584
-9.0977
-4.86086
-7.0974
-4.72956
-5.12549
-0.232661
-3.61935
-0.619007
-11.4036
-9.30853
-10.2923
-8.46821
-9.34617
-6.86763
-9.10993
-14.9187
-13.1395
-15.803
-13.9325
-18.6912
-14.1036
-18.5101
-11.5049
-16.7284
-14.7158
-18.0398
-14.2744
-19.2852
-16.368
-5.70575
-11.2146
-7.94545
-7.9829
-6.03148
-10.7704
-7.53075
-0.628188
-4.54139
-1.79601
-3.61802
-1.47458
-4.60801
-1.89595
-155.64
-108.48
-140.749
-130.328
-208.54
439.206
-174.277
-161.307
-187.208
-209.704
-176.385
-179.661
-138.182
-130.587
439.182
439.893
433.388
437.542
-174.196
-132.697
-144.189
439.706
-172.646
435.822
376.31
-74.1926
-137.355
-52.1061
-145.163
-35.9623
423.863
318.231
-2.9695
-23.9523
1.42587
-16.3028
2.51352
315.101
434.908
437.57
433.925
436.466
431.277
434.631
-146.944
436.803
461.733
434.59
406.419
433.769
416.084
-52.1602
425.696
407.456
315.278
419.482
345.287
1.84332
-24.8709
1.37147
317.644
19.115
274.958
7.73561
437.032
432.882
434.729
428.496
433.317
427.655
431.913
403.058
436.287
344.503
433.459
413.718
432.676
442.725
452.287
348.912
439.911
311.271
445.276
246.691
1.41772
326.708
3.36155
244.425
2.08057
303.829
2.09369
434.067
432.211
435.571
426.958
431.432
426.448
431.227
404.418
434.958
392.349
432.674
434.808
431.051
475.591
320.168
412.482
323.528
426.187
298.626
372.385
292.766
3.95034
1.89385
296.675
294.181
5.72209
435.926
432.409
435.725
427.642
431.976
429.968
433.241
374.069
435.045
-162.025
431.524
416.199
430.874
377.564
-150.838
-66.9436
353.701
225.357
411.461
277.889
1.63389
-46.3642
-0.133438
238.614
5.7717
310.721
-6.72831
435.529
-65.401
427.985
433.588
434.363
434.556
-163.471
-150.098
432.942
549.93
433.517
411.25
-75.0855
-118.213
-106.995
404.842
319.238
395.861
-81.6535
-3.48222
-74.4451
-18.3352
300.781
-13.4378
-63.6133
-16.4208
-41.1852
-53.3419
431.822
434.751
-26.6152
-56.6652
-77.1867
-108.343
434.102
410.547
-66.978
-113.789
-134.143
-141.094
-138.522
-88.4014
-134.199
-128.743
12.5062
15.9395
15.0777
4.43131
11.5505
-1.2867
-0.306118
-3.46418
-2.3844
-0.942528
-0.171933
-0.716641
-0.435674
-1.33456
-0.448706
-7.65627
-7.31274
-5.30759
-3.55501
-12.8594
-22.2454
-5.41785
-17.1921
-21.32
-9.10328
-17.9825
-14.0404
-3.94514
-4.43485
-9.83257
-5.31287
-3.32198
-0.630139
-4.14449
-0.778426
-6.14492
-3.83053
-7.66259
-2.85728
-2.42643
-0.342348
0.506066
-22.3098
-13.2933
-24.5378
-4.98029
-17.7733
-4.71202
-26.4696
-11.3853
-24.1024
-17.5608
-18.7666
-15.5352
-28.2241
-13.857
-5.4975
-13.6612
-6.68296
-12.0537
-6.08697
-7.2146
-8.73181
-25.6621
-16.8613
-33.0036
-5.6096
-28.7801
-25.3936
-20.4662
-35.1634
-31.2836
-30.173
-15.0778
-42.9572
-37.2182
-34.6354
-56.0489
-25.7002
-65.5394
-43.6519
-123.339
-41.9913
-66.5386
-61.5275
-61.3172
-52.0887
-134.29
-108.293
-112.058
-147.943
-178.436
-76.6638
-168.954
-152.899
-210.009
-108.186
-185.91
-156.314
-186.232
-184.328
-218.985
-168.067
-211.956
439.254
440.245
-209.972
434.809
439.008
-160.903
439.878
-168.36
-209.309
-148.727
438.325
459.724
-43.9462
-140.602
-30.4294
-105.583
-25.4681
406.872
293.691
-2.95733
-9.6121
1.63564
-13.7806
1.32019
306.063
-2.45538
436.992
417.918
437.699
372.173
437.368
388.495
-29.7767
433.447
315.248
353.573
273.889
382.427
154.963
3.32088
304.76
302.902
-5.27005
287.742
-0.47789
423.418
434.013
362.419
437.408
412.641
434.797
452.552
309.91
418.212
300.55
421.559
274.775
440.307
260.112
1.37119
335.145
6.87859
294.717
-2.08507
248.629
-74.689
415.658
432.756
440.857
433.484
559.005
432.404
620.536
318.93
444.352
223.517
424.442
263.019
436.148
281.29
-0.487011
303.721
4.58082
150.69
277.334
-39.9449
430.975
431.097
417.834
433.463
468.113
432.999
430.942
274.344
365.965
305.321
430.383
11.6203
438.047
196.076
268.45
1.01578
198.283
-86.9903
377.818
431.811
443.432
432.628
444.243
432.618
428.928
275.594
424.23
296.803
454.316
231.996
385.212
228.165
5.18654
334.595
-2.38672
160.768
264.77
-1.65818
413.392
433.455
409.182
432.168
209.864
430.221
409.881
290.461
418.086
401.077
147.627
432.176
286.309
-24.0795
-12.0036
273.469
0.190824
258.358
-2.39151
434.728
-20.9603
-53.6472
431.718
430.732
431.37
434.218
420.9
-65.0615
-110.698
430.466
409.918
433.376
-83.8845
-121.857
-108.899
432.543
285.728
-110.76
-84.1819
-20.5212
-81.4731
-17.0889
312.678
-5.09245
-70.7529
-20.6216
-51.8722
-17.7693
-35.6552
430.173
-14.6454
-48.7155
-115.802
-59.5939
-100.977
-106.972
-63.6171
-93.3102
-126.055
-124.887
-127.617
-111.02
-94.2134
-121.945
-129.186
-22.9223
11.9437
-9.42722
2.82784
-48.8345
30.5605
-37.4289
-95.4014
-38.8243
-57.3726
-57.0313
-102.507
-42.6607
-70.3084
-2.52555
14.7751
-3.722
37.5161
-31.4514
19.2337
-28.2234
-9.04335
-13.7992
-36.7103
-60.3865
-26.7022
-3.71862
15.5721
-2.83183
13.3928
-22.4221
14.6174
-7.51354
-11.2471
-4.89868
-4.50047
-20.3776
-21.3097
-11.0945
-8.89343
17.5536
17.2773
16.7463
8.9584
12.0847
-4.554
12.691
-4.27044
10.2809
-1.03597
-3.54181
-7.41659
-7.30716
-3.46971
-3.10141
-0.319218
-4.70868
-0.806732
-0.883562
-0.829478
-0.878083
-2.16878
-1.0502
-1.02114
-0.418286
11.8582
10.0923
-0.615416
-2.02432
-2.36857
-1.16059
-1.02
-1.07557
-0.31368
-5.54099
-5.3838
-7.04222
-6.26762
-6.17116
-8.53954
-12.6231
-7.05118
-10.175
-7.78235
-10.9788
-14.6416
-13.0134
-10.7706
-9.22671
-13.6069
-12.769
-8.63678
-6.06184
-8.36862
-5.36123
-9.7515
-7.08247
-3.992
-1.69323
-4.63613
-0.215867
-4.51373
-1.87152
-17.0342
-4.98168
-21.5934
-6.96558
-12.1941
-7.38067
-14.8759
-16.1695
-23.1861
-17.7679
-15.961
-15.8023
-20.2111
-19.358
-25.2853
-6.53493
-19.5823
-10.5821
-29.4057
-19.2569
-26.8577
-26.8813
-39.134
-37.1571
-44.7821
-137.027
-13.0486
-52.9596
-52.2164
-128.123
-145.906
-118.806
-61.4143
-62.9742
-165.261
-168.465
-38.0925
231.964
-143.782
113.953
-58.1434
313.732
433.529
-154.478
-148.523
-194.913
-82.3692
-139.4
437.385
440.353
-179.812
-201.906
-167.321
-176.302
-178.377
439.847
-41.0067
-122.117
-27.3828
-149.502
-56.5757
-16.9874
-2.80388
-15.0529
-0.286835
-14.9768
-3.03956
-4.50269
2.28156
-202.651
436.358
437.994
437.493
439.613
434.448
437.151
-149.865
437.686
403.636
438.857
421.595
436.289
421.433
-19.8498
406.601
291.766
430.968
-4.00816
427.853
216.176
3.10084
293.773
2.31264
2.38749
3.82265
271.337
1.25865
559.252
435.995
428.049
436.32
358.696
435.879
364.804
268.863
416.145
255.273
416.972
277.98
444.603
13.5574
1.32256
319.94
309.676
4.45166
229.193
-115.816
385.096
437.668
419.799
436.028
441.173
430.101
493.001
203.506
439.959
266.006
438.506
136.604
402.505
166.041
-0.149155
356.7
-26.9718
209.14
328.249
584.468
431.445
594.172
427.599
438.48
422.166
374.561
224.785
433.184
212.635
340.975
165.538
327.989
270.35
-31.1701
233.121
-36.1043
225.837
272.065
536.707
417.609
413.948
417.392
411.263
415.707
412.715
415.134
429.695
422.74
430.121
419.428
422.523
420.103
423.04
472.809
431.957
492.681
421.32
374.815
422.422
350.483
182.274
452.123
71.109
330.341
268.912
276.565
238.993
161.765
269.664
498.107
239.014
768.489
454.44
434.105
212.747
425.502
394.776
429.802
433.137
211.143
395.487
197.42
265.183
186.874
441.89
238.033
374.818
-2.52624
211.386
726.562
267.137
392.7
429.291
411.176
431.521
551.546
429.794
403.691
182.614
429.652
326.981
439.421
234.71
427.335
211.845
-29.0581
284.358
-1.17548
316.414
235.917
-1.87528
430.839
433.221
434.159
426.172
429.82
431.956
433.223
441.049
433.35
429.338
444.656
432.254
356.22
302.459
-80.0132
424.422
236.487
342.034
296.126
-7.25335
-67.4201
-24.0667
261.277
-25.6886
298.253
-13.9077
423.315
186.912
29.5022
337.451
421.059
201.154
-33.8822
434.503
-31.5168
-49.2179
434.016
434.983
-45.2709
-42.9784
-107.904
-61.7413
-99.5053
433.57
324.692
-47.9572
-111.773
-86.6167
-111.929
-123.694
388.516
300.37
-124.131
-116.566
-22.0999
-81.874
-29.4866
-23.0178
-80.2939
-30.8421
-51.9567
54.7079
-27.4215
-40.47
24.5419
-36.2183
-101.361
-106.777
-54.6034
-128.163
-49.2092
-115.026
19.6482
-19.7735
25.9104
-24.0562
14.3753
-5.31843
-20.7594
-24.3763
-38.3644
-87.1686
-20.2839
-31.2939
-10.3784
11.5821
-4.73387
12.7102
0.28126
11.1165
1.6267
-17.3626
-8.0579
-8.96205
-11.3882
-15.57
-6.78558
-10.372
14.6678
8.97341
11.774
15.6757
13.8468
10.5116
10.5216
0.203676
9.14607
0.217794
9.28579
2.65012
9.01682
3.25388
-5.94097
-2.18815
-2.97021
-3.07542
-5.4721
0.685954
-2.51496
-3.60282
-1.75603
-1.80061
-6.06008
-5.06986
-2.62309
-2.84803
-1.71776
-1.6393
-0.534956
-4.21394
-1.84736
-2.47696
-0.645001
11.2161
7.56576
10.0137
0.245682
9.2771
2.86581
-2.03981
1.5194
-1.96794
-1.55735
-2.03988
-2.7402
-0.421892
-2.51149
-0.390963
-9.21968
-10.1192
-9.00183
-8.35656
-5.69009
-4.79461
-0.227059
-7.01363
-5.56673
-5.88044
-13.4759
-6.79926
-5.12616
-5.57823
-9.88648
-6.90693
-10.0317
-6.76331
-9.29894
-6.55955
-9.64848
-9.29687
-13.4873
-12.7748
-10.4144
-9.82378
-13.3388
-12.8311
-5.50681
-10.7811
-8.01442
-8.62786
-6.1724
-11.109
-8.31722
-0.237807
-4.85893
-1.97365
-4.58368
-0.747976
-4.9694
-2.00202
-149.273
438.085
440.11
-69.8225
-156.836
439.994
439.817
-170.043
439.662
-181.559
-159.358
439.283
432.366
-59.6754
-17.6318
-130.027
-63.4772
436.603
-37.9402
-4.20054
-7.62184
2.39869
-31.9811
-6.99043
-26.2617
0.516409
439.756
433.256
436.605