/*--------------------------------*- C++ -*----------------------------------*\
| =========                 |                                                 |
| \\      /  F ield         | OpenFOAM: The Open Source CFD Toolbox           |
|  \\    /   O peration     | Version:  4.0                                   |
|   \\  /    A nd           | Web:      www.OpenFOAM.org                      |
|    \\/     M anipulation  |                                                 |
\*---------------------------------------------------------------------------*/
FoamFile
{
    version     2.0;
    format      ascii;
    class       volScalarField;
    location    "6";
    object      p;
}
// * * * * * * * * * * * * * * * * * * * * * * * * * * * * * * * * * * * * * //

dimensions      [0 2 -2 0 0 0 0];

internalField   nonuniform List<scalar> 
146404
(
-16.4512
-1.44311
12.9105
-9.20301
-34.3195
-21.0232
-7.64769
12.7404
-26.5527
-27.0375
-7.0071
5.76176
-20.1215
-29.2562
-14.2031
-2.13041
-25.9669
-10.6532
-3.66468
10.1074
-14.3343
-21.3986
-17.4907
-7.95983
7.24163
-22.6314
-24.2517
-14.7602
-8.62278
15.21
-20.9307
-43.0248
-30.0849
-8.53265
17.1575
-26.868
-39.6654
-25.6991
-10.5076
17.9494
-17.8092
-30.6286
-9.77542
4.44012
-30.4771
-43.4147
-26.8904
-8.47077
2.51673
-34.9306
-37.9679
-14.7071
-2.91691
-0.634975
-32.3704
-28.2827
-17.8123
0.190067
2.31961
-21.1441
-21.999
-17.7613
-0.140815
14.7634
-19.6517
-7.63597
13.1819
-22.9555
-34.5863
-33.3464
-9.33342
17.2004
-22.5213
-47.5412
-35.0468
-12.9068
21.6946
-28.1489
-57.7265
-43.1037
-14.8431
31.7783
-25.977
-51.6521
-36.451
-14.094
38.5999
-27.5885
-39.2177
-12.9908
17.5072
-24.8324
-63.5788
-40.2634
-13.6507
20.1252
-27.5987
-64.0985
-44.3917
-12.8569
12.6972
-22.4135
-41.7541
-30.6776
-9.99559
12.4784
-22.4372
-28.7125
-29.513
-7.0116
15.9948
-6.07634
-26.9726
-5.99463
-9.00369
-23.4607
-17.4098
-3.69512
4.52419
-29.7544
-28.8508
-20.7299
-6.95771
15.7515
-17.8598
-36.7655
-26.4688
-10.5681
32.9877
2.27678
-49.3698
-33.16
-12.1029
37.5439
-17.5822
-52.6074
-41.6992
-14.1633
50.558
-26.9364
-58.7735
-45.9959
-16.2486
63.0379
-35.6666
-67.4845
-44.7919
-13.4075
72.6052
-16.4653
-44.467
-12.948
42.9295
-32.1998
-78.059
-47.5526
-13.4935
37.2242
-30.2071
-70.5118
-47.9659
-14.7777
38.3369
-21.9785
-57.0306
-45.2228
-13.9286
33.9847
4.29154
-46.3702
-35.9111
-12.0071
19.221
-18.7605
-36.4214
-19.8983
-8.38162
12.7103
-16.8183
-18.6254
-14.9769
-1.41477
-6.28417
-13.4065
-8.05498
-0.816404
5.83815
-23.5722
-27.8255
-7.83163
-5.00521
17.0548
-15.6477
-50.7995
-36.6954
-11.9881
25.6423
-18.6624
-47.8079
-31.0582
-13.3924
58.9195
-10.2922
-56.712
-33.8306
-11.7923
80.5189
-19.3046
-67.1499
-45.4359
-13.1015
94.1648
-88.0937
-74.5574
-46.6441
-10.074
143.595
-127.596
-77.5874
-45.5949
-12.0214
187.153
-117.718
-48.8725
-12.5861
132.998
-147.128
-89.429
-50.1083
-13.9974
78.6041
-117.57
-85.2427
-57.0459
-15.1607
88.2847
-21.8406
-72.7639
-51.9275
-11.6424
60.9027
-3.47095
-54.2354
-39.6672
-14.7234
28.5956
-10.2493
-43.0264
-36.2261
-13.4008
24.6514
-4.2745
-27.3577
-26.4809
-10.5334
18.7632
-2.42305
-10.7599
-5.11178
0.489206
11.3615
-14.1934
-19.902
-12.6257
-5.91766
14.9355
-18.1742
-42.8097
-23.3418
-7.25736
25.5027
-19.6104
-58.5571
-39.0568
-11.5203
47.0354
-13.2653
-69.7764
-35.9271
-12.1369
79.1529
-74.4641
-76.7574
-38.2702
-11.2904
166.184
-103.98
-86.2714
-42.2662
-11.7615
503.721
726.442
-44.435
-12.6545
652.96
728.823
744.296
704.985
661.173
726.752
741.82
712.084
465.781
630.647
719.254
739.068
700.922
491.497
703.913
-54.0995
-14.2892
221.044
-49.5107
-11.4673
97.3123
-34.23
-68.7158
-43.9393
-13.2847
41.6703
-8.77082
-56.6013
-46.5561
-17.0166
30.5138
-0.271074
-32.7143
-28.5921
-10.4255
27.891
-6.64679
-21.0195
-13.2537
-6.42331
26.124
1.66991
-6.20349
-9.08902
0.0912295
22.9259
-9.93155
-32.4704
-20.4851
-7.9775
25.7854
-10.2408
-40.1485
-26.9217
-10.5322
43.7618
-18.1392
-52.863
-35.9094
-12.276
69.3286
-54.9701
-72.3829
-35.7045
-11.4566
149.456
-141.77
-73.4396
-40.3146
-15.1643
636.427
729.66
750.609
-14.64
712.319
731.013
741.4
696.683
437.594
719.809
729.982
738.022
717.266
451.206
717.207
728.183
738.5
707.046
434.259
704.598
722.217
732.574
694.175
465.649
664.224
714.287
731.238
670.266
426.023
566.196
711.331
733.388
713.41
-18.0385
176.502
-165.288
-85.6728
-44.0432
-10.3445
85.9039
-27.1431
-68.1898
-45.086
-13.334
53.1498
-8.40327
-45.4313
-33.5477
-10.6677
39.5734
4.23854
-27.8291
-22.6769
-6.98978
36.5079
5.06223
-18.2549
-15.8363
-1.00948
21.3634
-15.1507
-25.8007
-25.8069
-8.9728
37.2747
-6.6261
-39.6688
-25.8767
-13.118
74.545
-36.4124
-13.0805
108.099
-52.4692
-76.4729
-42.5017
-13.48
492.216
-88.0089
-41.0665
-14.9053
713.467
733.297
745.521
678.027
442.434
726.764
736.009
745.326
681.787
440.73
730.976
729.884
741.379
733.181
480.266
732.691
729.118
727.481
729.054
432.913
718.894
724.175
732.723
739.752
509.06
701.355
719.17
731.428
648.807
545.416
654.111
711.873
725.267
697.39
429.399
480.371
699.718
731.61
-46.9129
-13.0459
129.85
-53.2947
-78.7272
-42.5814
-11.8516
76.9421
57.9191
-43.879
-12.5431
46.6297
11.0095
-31.8734
-21.1779
-9.81535
33.3592
-1.11882
-13.7833
-15.9839
-1.18347
9.41556
-5.52251
-4.71496
-0.478249
-5.15849
-14.8429
-12.8931
-5.6519
18.4389
-13.9201
-31.5011
-28.8073
-10.5644
29.567
-20.3776
-49.5847
-41.2702
-16.9895
52.5896
-27.7208
-58.5204
-43.1596
-15.9025
121.107
-112.229
-79.7501
-46.6469
-15.8755
648.344
731.563
749.438
745.21
-22.259
721.281
732.886
741.301
685.461
430.278
731.694
731.932
741.163
754.946
431.797
746.719
733.696
717.25
608.962
415.347
751.396
731.969
715.649
555.577
341.265
733.944
728.066
710.454
570.207
408.901
710.426
718.618
724.549
731.192
386.863
682.189
711.976
724.086
689.136
411.371
568.35
710.241
730.86
650.031
438.842
140.408
-111.581
-75.2634
-49.188
-13.4151
52.4842
-7.5398
-63.977
-42.3025
-16.9804
40.5103
-1.55987
-30.5691
-32.2908
-14.7373
34.5607
-0.398587
-10.973
-7.70836
-1.70452
32.2022
9.51766
2.47437
-3.45895
-0.531672
16.3972
-5.27605
-16.6113
-8.87783
-4.29384
17.8657
-14.7124
-28.7824
-30.749
-13.1755
29.1017
-22.3998
-50.2687
-37.9331
-14.9153
49.1232
-26.1823
-61.2474
-42.1564
-14.281
137.885
-146.095
-86.8785
-49.7135
-15.2052
657.211
734.446
746.068
709.484
720.743
732.159
741.179
711.42
479.273
734.193
732.896
740.505
746.762
419.662
748.236
734.826
717.384
557.241
371.455
728.971
734.865
726.704
535.612
382.764
740.145
726.251
712.375
552.176
367.146
712.929
718.846
719.362
741.446
409.816
688.898
713.213
723.267
712.771
400.206
581.952
708.916
731.525
692.701
420.528
149.985
-163.062
-87.5639
-46.496
-12.7221
52.8555
-4.90287
-52.767
-49.5129
-18.4938
45.4788
1.79967
-33.6737
-29.6934
-9.25454
37.2253
2.04109
-12.012
-8.19111
1.79374
32.7293
13.2037
1.18235
-1.66535
0.856959
-6.65126
-15.7023
-13.442
-5.46443
18.0754
-14.6725
-25.3999
-19.6543
-9.27389
32.1776
-14.8797
-40.6764
-31.3158
-12.4816
69.1951
-5.15918
-59.7285
-43.8774
-13.3653
123.959
-104.227
-87.897
-46.6354
-13.6259
629.599
728.255
744.126
693.509
-22.1142
712.065
728.71
736.584
703.774
451.605
724.736
731.236
739.499
731.062
398.138
737.449
733.49
717.399
624.975
405.906
743.441
727.123
709.72
561.901
368.437
732.861
722.739
706.885
595.97
429.196
707.66
721.105
730.739
733.758
353.443
681.006
714.132
726.6
653.118
410.518
551.394
712.567
730.754
690.965
449.317
130.838
-96.6333
-85.1315
-46.1945
-11.4358
73.6034
-2.56372
-52.576
-41.1236
-13.0032
48.3251
2.24918
-25.6105
-24.595
-8.44023
33.8895
-3.35166
-11.4147
-10.4321
2.84842
32.5222
9.75203
3.89396
-1.5635
0.395744
23.5139
-9.49236
-28.1836
-21.9929
-6.39183
37.8785
-2.51751
-41.0547
-22.4204
-11.1352
66.8943
-31.1641
-13.9214
86.1713
-33.8098
-77.6863
-44.4126
-15.0241
449.974
-89.9942
-45.0029
-15.8618
673.457
725.864
738.553
713.661
440.927
710.502
726.576
736.737
711.032
389.454
717.268
725.278
733.827
758.345
517.986
717.746
725.081
736.064
729.551
424.934
709.764
723.497
730.441
726.779
443.04
698.866
717.134
729.745
669.03
445.049
649.994
717.431
727.835
653.941
431.338
454.421
710.558
733.009
-43.5028
-11.5428
101.44
-46.2888
-70.6661
-38.8722
-12.6068
69.9084
25.3513
-36.2971
-11.145
48.5195
19.6341
-33.5998
-22.3488
-6.50583
38.6193
8.34194
-13.9999
-12.8182
0.562862
9.21789
-1.60469
-4.27414
-0.391618
17.8437
-12.774
-31.1453
-21.2257
-6.82824
19.9848
-18.8322
-37.9903
-27.5797
-9.08499
30.6838
-14.6959
-58.6532
-48.8129
-17.0353
67.7089
-28.4064
-61.742
-43.3846
-14.0891
113.013
-123.266
-76.3991
-42.8608
-12.7111
543.307
727.167
741.09
-17.2605
663.72
723.588
734.943
700.206
424.338
691.693
720.676
730.45
707.375
395.9
697.171
721.054
736.304
647.869
354.864
685.699
718.295
728.612
702.777
403.113
649.454
718.67
728.271
675.769
411.704
559.182
717.415
734.668
612.097
-17.967
93.3868
-99.7965
-73.7766
-44.0155
-11.7127
43.2288
-10.9454
-55.1104
-43.7963
-15.929
33.7298
-4.42175
-41.2319
-31.3916
-10.7881
36.4313
-7.82165
-28.6365
-21.0723
-3.84707
36.6868
4.37397
-24.4822
-8.41044
1.55067
14.0094
-9.52027
-22.6261
-12.4046
-7.45118
9.78344
-20.5295
-30.0746
-25.3445
-2.31752
16.8433
-15.3431
-46.6772
-44.9478
-18.5211
38.2581
-12.8671
-49.8449
-40.2018
-15.1414
78.9677
-42.5788
-64.4791
-43.8405
-11.9023
119.454
-89.637
-91.4536
-39.4666
-14.1991
431.238
717.446
-84.5517
-50.6465
-18.0439
587.407
721.206
735.605
659.934
593.725
720.439
735.397
660.815
455.76
584.895
721.275
733.475
688.992
428.602
713.907
-43.1114
-12.8451
110.192
-40.2753
-10.4943
76.2975
-32.4914
-61.6607
-47.7793
-13.9025
33.1247
-8.46177
-41.7518
-35.6289
-14.0881
25.998
-11.1251
-33.1654
-23.6433
-10.2862
26.7489
-7.9756
-18.3809
-9.32759
-1.81979
29.8049
0.0631728
-11.006
-5.08305
-1.20748
8.52262
-17.2774
-23.4193
-17.8685
-3.11588
8.10153
-19.3832
-36.2418
-28.593
-9.17903
23.7804
-19.4212
-46.191
-35.1564
-11.0386
50.4194
-2.64594
-53.3532
-38.7844
-11.8852
66.6682
-31.7833
-67.7961
-48.8226
-13.5386
63.694
-70.1737
-76.0025
-51.6214
-13.1227
70.3467
-94.9981
-80.1537
-55.0209
-12.8153
100.18
-105.305
-53.3749
-16.3034
56.547
-92.0947
-72.4985
-46.7409
-12.5958
60.8743
-58.4894
-67.0591
-49.933
-13.4498
64.6042
-10.1495
-58.8622
-37.5821
-11.8415
50.4471
-3.16857
-54.0799
-30.6467
-10.6098
30.3578
-10.5919
-34.2261
-28.0353
-7.7799
23.0295
-9.14928
-19.7154
-13.5778
-2.02653
23.4081
-0.54136
-10.8166
-5.98696
2.08442
9.20958
-24.2817
-31.4237
-16.4804
-1.92565
21.1266
-14.5647
-40.776
-27.2885
-7.88787
27.4336
-7.00902
-42.8021
-34.9643
-10.0832
25.7427
-16.4907
-47.4851
-39.5034
-14.1937
31.9757
-20.0953
-53.2863
-42.3542
-15.2134
60.1739
-23.2559
-60.0294
-43.6027
-12.9582
71.797
-21.8599
-47.3757
-12.1239
28.7015
-15.9671
-66.5662
-37.5563
-13.013
24.5419
-22.3933
-55.9536
-41.5715
-13.1488
28.4087
-12.6965
-39.5235
-29.6225
-9.24204
27.5599
4.21826
-35.3238
-25.2967
-6.68745
22.6562
-4.19684
-31.823
-22.9996
-1.93199
17.5973
-7.13718
-13.2501
-13.9968
2.27955
0.828438
-13.0294
-10.3833
-0.708146
20.0819
-16.4632
-5.53084
13.859
-20.5803
-30.6089
-20.6477
-2.50739
18.527
-14.2549
-29.4524
-24.0235
-3.128
22.6933
-13.4539
-39.9983
-27.4145
-8.21515
31.7811
-18.7201
-42.0515
-28.4437
-9.94757
38.4879
-16.7586
-35.4299
-9.24051
14.6003
-15.4866
-43.3288
-27.8101
-8.67687
18.0153
-15.884
-34.3637
-21.2755
-6.67314
10.6894
-21.1783
-24.8204
-10.5436
-5.68558
12.0904
-15.3578
-17.5735
-15.4345
-7.68911
19.625
8.25061
-25.4217
-14.8283
0.0728562
-18.7954
-13.5533
-1.4236
11.957
-9.92489
-17.9477
-15.4578
-2.64594
12.5328
-12.2783
-15.2029
-10.0009
-1.40034
16.6481
-10.7506
-22.6864
-8.15859
-0.711229
20.5934
-19.7728
-31.4648
-15.6092
-8.14416
26.2948
-16.3578
-25.7888
-5.82313
14.9011
-19.122
-25.5326
-17.966
-4.34422
5.97507
-23.5491
-17.2912
-6.70467
0.419857
5.82274
-17.6669
-10.9484
-4.63981
1.97706
9.4997
-12.0514
-16.5023
-6.45581
-3.87187
18.5423
-7.43553
-18.7405
-13.2785
-6.19816
28.5372
-9.55878
-17.3647
-5.96599
13.9998
-7.47693
-15.3751
-10.7152
-5.20744
-8.79029
-6.03483
-26.2082
-30.7272
-24.6709
-21.0872
-10.4612
-7.5428
-0.116498
11.3214
-14.1294
-32.2699
-25.8328
-39.7671
-33.1322
-25.2029
-40.8126
-25.9244
-21.5422
-10.5525
-28.4945
-9.51451
-7.7806
-0.282624
-7.15903
-0.112966
11.2062
-3.43011
-19.4513
-24.5702
-19.8905
-30.9773
-29.6238
-22.3392
-31.4124
-9.44903
-18.3716
-6.25466
-6.99527
-0.0993137
-4.86097
0.121055
-19.6909
-20.3345
-29.4982
-28.0422
-21.0051
-16.4348
-5.69672
-3.91217
0.174417
-12.5902
-12.969
-21.4027
-21.9776
-21.5747
-18.6908
-10.9091
-8.59296
-0.819559
7.98089
-13.3256
7.55736
-15.528
-12.6477
-21.0196
-15.7568
-20.1495
-21.7278
-21.0852
-20.0208
-21.2571
-18.3876
-11.0706
-14.8571
-9.14203
-9.3285
-0.750846
-4.68741
-2.50651
8.39113
-17.2503
10.0967
-14.1592
-16.8097
-21.4047
-15.1307
-27.6806
-20.5538
-20.7488
-24.4406
-25.7714
-13.9832
-9.83468
-15.0402
-10.3797
-4.52514
-2.41298
-2.676
-3.15391
12.8723
-8.44581
9.99048
-7.43867
12.0072
-5.63811
-10.4361
-27.6881
-17.5874
-27.1679
-20.0801
-31.9399
-18.7818
-29.5859
-24.4517
-27.2482
-28.7455
-32.0044
-33.4979
-7.38063
-20.2106
-10.7016
-13.3516
-11.0739
-17.8282
-13.9978
-7.02454
-0.754597
-2.02585
-3.7601
-3.15305
-4.1684
-8.052
13.0409
-12.1389
12.2029
-7.86985
15.2347
-4.78231
-31.3506
-24.0509
-39.1817
-26.3491
-37.872
-17.2024
-46.7996
-25.1722
-38.5193
-25.5487
-36.9292
-32.5558
-49.5356
-31.1723
-12.4949
-23.8308
-10.9545
-23.3595
-17.5466
-27.4284
-15.063
-0.925902
-7.2454
-0.413117
-6.41491
-5.12129
-6.98732
-5.77901
-6.84084
7.27308
-17.5715
13.849
3.86831
7.19954
-7.88792
-20.6863
-31.9763
-19.7324
-22.1127
-41.0856
-31.2561
-22.9015
-27.8438
-39.349
-32.552
-10.3563
-19.6618
-6.67307
-30.7662
-14.1934
-21.2224
-11.8833
-0.0878303
-4.94363
-0.178746
-6.58534
-5.99919
-5.37283
-5.84968
-17.686
-17.4345
4.30137
-15.7715
1.04307
-19.03
-29.0967
-30.1885
-25.2631
-31.5383
-38.0533
-31.102
-34.9476
-21.048
-25.8666
-13.3193
-39.5849
-28.1105
-35.7727
-24.9048
-6.07434
-12.1132
-1.79534
-14.641
-11.5936
-11.4893
-7.27766
-0.173214
-3.7997
0.412981
-2.91051
-4.83872
-0.988658
-4.21585
0.287131
-25.941
-1.05336
-27.6117
-25.2724
-29.6961
-30.9245
-26.6525
-27.5072
-12.8894
-30.7173
-18.4707
-24.9021
-21.9654
-1.92026
-8.18743
-3.83328
-12.5058
-5.85372
0.845744
-1.72303
-3.17156
-0.584928
-1.70669
-1.47627
-26.6643
3.10215
-22.1285
-26.6648
-26.3993
-21.044
-25.0747
-23.5275
-21.4848
-24.661
-23.7447
-12.5431
-5.3038
-16.4699
-5.67028
-0.148372
-1.48525
-1.43845
-1.17246
2.69382
-20.6192
-19.6503
-23.5852
-21.9654
-22.7906
-17.6692
-5.0779
-2.00665
-1.08815
12.6648
5.01439
-17.9571
-11.4548
-8.96179
-1.18216
10.2963
-12.9621
14.6878
-5.2909
11.8325
-3.94498
-13.2129
-20.2273
-11.9348
-19.5422
-22.6975
-24.4642
-22.8323
-29.1835
-26.8593
-32.092
-19.5875
-12.5591
-22.281
-12.3086
-26.2566
-19.3982
-7.99016
-1.5267
-7.52248
-2.70735
-9.76921
-3.93901
-13.8632
6.96356
-8.25147
9.37164
-5.03294
8.99698
-5.01697
-20.3015
-21.2271
-22.555
-22.0446
-23.5788
-21.3011
-26.7712
-23.0358
-25.9996
-26.5415
-22.3655
-29.6872
-29.2003
-32.3694
-13.1166
-17.7274
-11.9863
-29.1227
-20.9793
-26.5878
-16.2004
-2.09148
-5.81233
-3.25106
-8.04521
-4.65697
-4.45915
-5.13786
-41.413
-17.9895
-46.0588
-25.7961
-44.8917
-21.0354
-57.3558
-44.5759
-50.0927
-31.7603
-44.6628
-50.525
-61.8349
-38.1648
-19.8293
-43.1417
-30.0931
-13.374
-50.8736
-28.5436
-41.3795
-38.0046
-35.1237
-48.8542
-50.0179
-19.6568
2.2394
-24.0232
4.23375
-10.0865
4.81234
-11.7292
-20.2015
6.43038
-9.70784
14.3758
-9.97014
-23.5536
-23.43
-21.9621
-11.5408
-28.2413
-26.047
-29.0018
-34.3663
-31.8819
-29.9721
-7.75597
-27.4786
-15.2144
-24.7857
-12.4339
-1.64277
-3.03167
-1.93568
-5.40449
-2.12478
15.1849
-3.69069
-4.49345
-32.6948
-5.27222
-26.7593
-31.0905
-28.6298
-26.3113
-21.8486
-27.0257
-11.0437
-18.6711
-3.04913
-4.85394
-1.69409
-3.41904
0.0566775
3.4415
-19.8068
-19.5848
-25.2365
-21.024
-20.037
-9.3711
-6.98815
-0.969411
-2.16654
13.7606
-4.38651
4.61389
-21.0719
7.44053
-8.20734
-3.41144
-24.1015
-26.6227
-20.4085
-39.3339
-35.5676
-30.3213
-26.588
-36.9219
-33.2616
-17.1369
-12.3027
-15.0008
-10.5361
-20.334
-16.9257
-7.16221
-1.95582
-1.51885
-3.23021
-6.24553
-5.2818
-12.9041
-33.4711
-15.8908
-38.3359
-4.21506
-50.0616
-29.8314
-37.0539
-38.659
-33.4828
-48.428
-39.6232
-50.4494
-19.7153
-58.6572
-25.3312
-56.8347
-12.8222
-66.4025
-56.0547
-62.9365
-40.0457
-59.2789
-62.6899
-68.2794
-46.4318
-11.9189
-54.1404
-14.5819
-9.31998
-65.1667
-37.08
-53.7173
-53.3865
-42.2141
-67.1486
-61.6231
-29.1516
-7.48961
-34.3806
-4.59411
-42.5321
-5.4247
-37.8971
-39.8482
-34.7067
-28.8844
-45.1103
-43.9169
-36.5465
-32.2594
-4.83793
15.2729
-5.22319
17.2039
-2.73546
11.9682
-3.36369
-8.13863
-24.9954
-8.71058
-35.2177
-15.5859
-17.5856
-29.9983
-26.9426
-21.1174
-35.1668
-32.7448
-24.5099
-29.585
-11.549
-19.0241
-4.73136
-23.4445
-14.242
-24.6468
-13.0259
-2.81509
-3.98459
-0.786328
-5.49026
-5.25534
-0.442108
-2.97535
-6.71323
13.5966
-10.3648
-9.6081
-23.1209
-10.9116
-17.7411
-8.56684
-12.9964
-20.2722
-16.1857
-23.4891
-13.9456
-10.6218
-4.24903
-16.2725
-7.28324
-9.69186
-2.36055
0.157016
-0.347289
-2.75697
-1.41655
0.577378
5.39013
-18.0828
-19.1172
-20.7793
-21.5928
-13.9151
-7.20906
-4.29303
-4.11
-0.800815
4.22729
-20.771
5.73048
-18.4798
5.35912
-13.0774
-25.4958
-25.5441
-19.8359
-23.7987
-25.2844
-25.722
-22.9979
-19.732
-21.1267
-17.7699
-27.7717
-25.4777
-9.20264
-6.34379
-8.92655
-4.64355
-10.5072
-7.32253
-0.395095
-3.07104
-3.00683
-1.98002
-2.73233
-5.15539
-41.2695
0.764586
-52.2787
-23.3857
-40.8097
-8.53312
-52.2758
-39.0047
-52.2441
-39.9865
-46.8014
-42.9996
-54.3323
-44.4016
-49.3346
-18.3821
-43.8421
-1.7127
-58.2344
-9.46463
-62.2921
-43.5883
-45.0023
-56.0086
-57.0008
-44.8366
-62.843
-56.2238
-63.0905
-17.5181
-70.4372
-84.3982
-80.7397
-87.3469
-90.2353
-64.8832
-69.8385
-46.611
-73.4416
-67.8261
-84.89
-48.8101
-17.0648
-72.7019
-85.6453
-101.25
-103.516
-43.1067
-70.8941
-63.9457
-43.8334
-88.7233
-66.4555
-48.7927
-1.96309
-44.6766
-16.2984
-69.2198
17.1802
-57.014
-47.8984
-50.4404
-67.9713
-61.3363
-46.0234
-45.9165
-6.17337
-37.7201
2.06678
-55.857
-5.85058
-38.6394
-46.6384
-38.8432
-35.4633
-54.4782
-42.5903
-37.9493
-42.2514
-3.72177
13.4532
-7.5439
17.5468
3.36722
15.5171
0.465129
-17.0631
-8.7291
-11.0599
-9.7248
-17.8495
-8.15135
-13.8633
-19.9378
-14.273
-9.96227
-18.0337
-24.5557
-14.6443
-17.7592
-5.2337
-8.92452
-3.59062
-14.8816
-11.8736
-7.66628
-7.34667
-5.03171
-0.474702
-0.587468
-1.44418
-6.26195
-0.353834
-3.55019
-5.74966
17.8085
-2.35356
-12.0426
-0.614494
-11.7881
-9.58768
-8.49681
-12.0982
-2.25428
-4.50209
-4.91482
0.33848
1.46365
-2.4303
-10.1984
-20.0215
-21.5125
-13.4235
-13.5355
-6.4299
-8.44903
0.211732
6.18463
-16.8216
10.9109
-12.365
11.0108
-9.65218
-18.8418
-24.0248
-11.8615
-20.2207
-19.5455
-24.6039
-21.8694
-16.777
-20.2369
-14.4478
-26.28
-23.3665
-7.81633
-3.98187
-10.7852
-7.28715
-10.1232
-2.76293
-2.89395
-2.35479
-6.95503
-0.182177
-3.43837
-3.39113
-60.3219
-17.1548
-68.7357
-33.2855
-70.7278
-71.033
-91.1164
-48.8183
-66.6892
-55.8314
-64.8578
-54.7022
-82.4436
-56.6968
-70.9038
-80.6963
-79.8537
-63.5734
-191.923
-95.4897
-61.2975
-71.3924
-66.6085
-58.0975
-82.0989
-56.0013
-91.1587
-119.902
-93.361
-91.7582
727.537
746.285
-62.5806
-76.4967
-62.5214
-82.6151
-53.5163
745.778
-32.2189
-46.1409
-34.1241
-46.161
-24.0002
-18.0593
-6.50898
-12.7237
-6.59502
-14.7225
-5.38354
-14.7403
-2.23994
-128.358
187.646
-138.669
561.258
708.011
592.369
707.327
-94.8276
-134.893
-91.5866
732.078
745.568
728.519
743.893
-61.0945
-88.1768
-50.4087
745.255
670.637
743.712
651.713
-30.0046
-44.744
-23.967
710.617
-16.657
716.423
-6.04181
-11.9534
-6.55735
-15.8758
-2.51266
-2.39186
-102.232
150.143
-150.044
592.656
706.814
567.736
699.632
-153.802
-104.894
727.656
743.446
725.098
740.578
-45.8008
-90.6739
-64.3337
742.783
673.484
740.657
623.359
-24.6741
-49.9649
-29.2352
716.104
693.139
-16.5257
-6.36743
-13.4145
-6.27933
-2.50857
-19.5845
-2.55218
-109.13
-120.342
-109.461
722.059
740.379
704.793
-66.0431
-88.2478
-71.6336
740.444
663.225
-54.4461
-33.3276
-53.599
-35.044
699.545
-19.8506
-50.7627
-23.4826
-6.16371
-11.81
-6.1644
-17.1805
-2.48538
-15.0693
-3.39865
-107.907
-71.4084
-87.3206
-109.911
-128.982
-116.971
-72.7079
-81.7603
-74.665
-107.102
-62.1178
-107.891
-62.5003
11.5141
80.6396
26.8239
123.704
-46.9451
101.65
20.057
-77.4641
11.4036
-61.1107
-24.6723
-75.1918
-66.9229
-57.8409
-46.0932
-68.771
-61.1359
-30.3643
-40.0037
-27.2712
-55.9553
-29.3334
-42.407
-29.726
-52.7854
-12.472
-36.8296
-16.6835
-52.9279
-6.7393
-41.2693
-49.0066
-44.6022
-52.4622
-64.7295
-63.4839
-49.8857
-57.3697
-1.90768
21.8471
5.48946
24.2606
-0.325253
-9.1891
-6.72794
-12.596
-2.51227
-5.89683
-13.9185
-14.5617
-19.3944
-6.88508
-13.5259
-6.52331
-9.77776
-9.51378
-9.47503
-2.83334
-2.8712
-1.82924
-4.64269
0.482238
-1.86164
25.7309
0.321943
0.668762
-5.23218
-5.09414
-13.1927
-12.3149
-1.44329
-0.0489003
-0.431261
9.42284
-12.8021
20.2384
-5.62666
-10.9182
-21.2533
-10.4405
-26.9793
-20.5595
-13.8844
-27.9121
-26.7015
-13.8522
-7.65499
-18.6641
-10.9325
-8.40324
-0.106794
-6.39036
-2.48081
-11.9146
13.1719
-4.47651
19.5207
-3.55831
17.6268
-0.761922
-20.7469
-20.5408
-30.1296
-15.4001
-23.758
-19.099
-31.1469
-20.3949
-34.0646
-27.2769
-28.9048
-29.4443
-37.7325
-33.583
-7.8917
-12.7713
-8.84627
-21.5548
-12.8496
-18.7347
-13.2311
-0.856124
-2.17708
-4.28224
-6.6204
-3.85165
-4.30657
-5.00196
-84.7267
-95.6087
-93.8065
-115.068
-94.9908
726.64
-64.7819
-83.5633
-54.1458
-77.567
-66.6601
-47.1381
-96.7733
-100.277
726.66
751.089
727.905
745.675
-53.4462
-90.0232
-50.7786
751.429
-47.8105
744.71
673.813
-25.7865
-45.3734
-21.9447
-52.7543
-18.5463
710.225
469.703
-3.5185
-13.6972
-2.70141
-14.6543
-2.57633
450.741
727.188
745.882
730.661
742.144
728.148
738.717
-48.4388
745.97
750.802
742.275
694.129
739.778
712.496
-20.0263
716.648
698.4
466.958
708.763
476.381
-3.28005
-17.3828
-0.632342
448.229
4.7461
427.209
1.42176
744.246
729.054
739.103
727.144
736.937
727.107
735.544
696.714
742.995
635.763
738.91
700.734
738.188
724.718
720.07
470.824
721.125
456.776
714.117
397.319
-0.673999
467.825
-1.99301
394.131
10.465
419.466
30.839
737.547
725.707
738.818
725.46
734.54
722.614
731.747
665.131
738.844
681.093
738.447
717.099
733.263
746.099
475.803
694.627
485.977
700.655
459.842
679.577
461.555
-1.75872
-0.706194
436.529
449.746
-0.555369
738.881
706.83
739.63
720.568
730.867
718.433
731.899
655.746
739.378
-55.3748
732.906
698.335
732.608
670.104
-57.7609
-18.2802
663.036
416.051
678.162
434.764
-0.690011
-13.2917
-2.27282
415.092
6.62393
430.219
14.8367
738.854
-143.081
710.935
731.948
711.227
733.985
-59.6479
-60.3724
732.555
792.634
733.126
697.241
-20.1742
-59.9747
-24.924
675.22
437.396
676.262
-11.5909
-2.79676
-11.3997
-4.17776
432.112
20.1052
-17.2498
-1.77916
-91.841
-89.2841
702.209
734.955
-172.656
-107.709
-79.2656
-67.6643
734.304
692.304
-88.2482
-63.5443
-27.4638
-45.4402
-31.4485
-13.2745
-43.8279
-30.3159
3.60771
33.4821
5.17821
-4.97716
2.87801
-13.5123
-15.0894
-16.1385
-22.6792
-3.47235
-15.0785
-5.3407
-1.00144
0.347102
-2.50916
23.5267
0.190731
24.6647
-1.65035
-7.41724
-30.7928
-5.46251
-24.8254
-29.4779
-25.4643
-26.0376
-28.5371
-17.6101
-11.4585
-21.8599
-13.3175
-7.10831
-2.18013
-5.54095
-3.48569
-1.41437
24.1243
-0.530994
25.6549
-0.618357
29.929
11.5158
-32.244
-9.92299
-37.8742
-5.50222
-27.4471
-8.73121
-38.8194
-29.6643
-38.785
-35.2048
-31.7736
-30.0261
-41.7885
-27.3911
-13.7472
-23.7535
-16.1058
-22.7904
-15.9151
-20.2471
-19.291
-43.2732
-15.8979
-43.4093
-9.94744
-41.3539
9.6073
-39.782
-43.5597
-48.8962
-43.1804
-28.4615
-38.4811
-44.8968
-22.7051
-58.358
10.1362
-61.2618
-17.1224
-70.1609
-58.9553
-62.1489
-66.3527
-61.551
-41.4011
-68.811
-58.9153
-74.3704
-112.196
-94.9234
-40.3256
-79.0686
-178.005
-92.6142
-66.6377
-73.5176
-61.3342
-73.6007
-64.4267
-81.2413
-54.664
-92.1517
727.241
751.205
-90.9017
731.995
748.738
-59.2458
751.303
-47.9831
-83.7541
-51.1669
748.268
723.64
-26.0117
-52.9887
-19.8063
-41.738
-22.4734
685.897
471.699
-5.25247
-15.6827
-2.87553
-14.9533
-3.05639
455.669
5.68836
745.351
703.364
746.45
661.08
745.428
695.677
-15.7955
713.927
462.398
661.157
462.831
672.58
378.865
-2.27114
445.067
450.824
14.8635
429.185
-2.87159
710.26
739.179
681.995
746.01
756.297
743.6
758.173
458.326
705.074
458.376
677.329
443.666
728.862
443.786
-0.182312
465.86
-0.518031
444.288
-0.0918352
442.22
-17.2366
715.537
737.115
730.087
740.284
846.427
733.463
890.664
459.731
719.429
406.304
722.238
437.409
732.703
466.088
6.22394
420.609
27.5846
352.653
471.615
-3.61636
719.948
733.876
713.062
734.076
755.191
733.091
745.277
459.187
686.225
464.269
724.768
282.286
735.209
391.186
432.946
-1.33614
415.59
239.053
678.34
732.542
709.794
734.097
740.985
732.788
701.306
452.344
681.135
446.434
736.06
433.407
656.471
445.846
7.35087
438.235
19.5063
416.105
433.769
-1.94672
690.709
731.579
693.248
731.22
573.912
727.199
690.043
425.517
694.464
663.316
409.992
701.206
440.06
27.4652
-1.20741
441.279
3.79129
408.332
12.8028
733.824
-189.676
-108.409
714.666
727.265
700.845
732.697
701.414
-90.2196
-59.1759
726.705
685.481
731.593
-13.494
-42.5787
-24.1511
700.48
434.408
-44.6711
-15.7476
-2.22535
-11.1205
-2.93971
427.319
23.8363
-12.0506
-2.52334
-107.533
-83.2031
-89.6268
698.223
-82.853
-90.4725
-64.3608
-81.6184
-68.8405
-48.3659
-80.4798
-61.7535
-31.5529
-43.8933
-31.206
-42.5078
-19.8721
-41.951
-27.3044
-67.2049
-15.2888
-50.3126
-46.9243
-82.9418
7.6098
-58.9928
-65.4467
-55.1946
-58.6055
-74.6697
-54.4683
-60.4266
-46.5724
-34.9533
1.33996
-30.1012
29.4227
-56.8364
18.8229
-45.9306
-30.8761
-34.5357
-57.6696
-42.9782
-26.9878
-27.4914
6.18434
-20.821
12.5738
-37.4254
12.269
-19.6764
-30.8633
-21.793
-25.4602
-36.1763
-27.2057
-22.5175
-21.9547
14.5593
37.4107
13.1193
35.5834
13.3471
-19.0589
9.45878
-16.7088
12.2661
-6.80867
-22.4382
-17.7403
-22.4778
-12.6455
-10.9396
-6.05813
-12.677
-7.40733
-6.46084
-3.73182
-3.00277
-1.15226
-3.68942
-1.14467
0.162607
15.4874
8.35892
-7.54904
-8.56897
-9.19734
-5.32449
-2.17058
-0.814847
0.0444687
23.2105
-5.4946
-1.81525
16.246
-0.969911
-13.2807
-13.0545
-5.7179
-13.8301
-13.8512
-16.2408
-20.3235
-25.5102
-15.4239
-13.211
-19.4165
-21.0406
-22.704
-14.3252
-13.9215
-6.07348
-16.0303
-11.2359
-4.81773
-5.24352
-6.78999
0.817404
-4.74582
-5.50328
-21.9617
-11.0071
-32.461
-12.1548
-22.4372
-14.252
-30.0646
-30.4584
-38.742
-31.1204
-26.9925
-34.743
-33.0257
-41.0957
-37.9367
-14.5912
-34.5336
-17.1487
-46.0172
-34.7685
-39.1819
-46.6345
-50.7175
-54.1273
-19.0849
-76.1297
-12.5565
-61.9225
-59.402
-84.9365
-73.6306
-52.3202
-57.9042
-57.5106
-74.9843
-59.74
-14.4409
352.749
-213.543
122.584
-53.9683
513.916
718.542
-80.097
-177.876
-90.2832
-87.8402
-88.9092
731.032
750.707
-56.4816
-83.9442
-53.9955
-80.3714
-61.6235
750.448
-27.6052
-43.8302
-22.7619
-45.6485
-28.2089
-19.583
-7.40756
-15.2784
-5.62544
-14.1438
-7.49918
-15.1438
-2.89074
-89.4677
736.335
747.088
732.345
749.591
733.197
743.911
-48.8699
746.65
689.326
749.251
720.426
744.165
709.781
-20.3266
684.532
469.27
734.242
-16.1695
711.977
406.032
-3.67231
452.392
0.407322
-17.4239
-1.76968
429.691
-0.513324
803.772
744.786
707.656
743.017
666.41
741.394
720.038
460.759
695.169
457.339
700.335
449.016
748.684
374.332
4.14025
456.886
451.697
-0.0739985
442.522
-9.42365
708.75
744.488
737.666
740.903
787.003
726.34
771.453
422.727
735.017
448.786
751.72
393.909
711.73
374.978
-3.79632
497.605
-6.97955
438.089
503.055
890.859
728.093
873.745
718.793
737.052
703.87
635.571
395.086
737.609
441.551
653.694
393.37
588.552
416.427
-13.8107
437.432
-0.984336
413.081
383.762
295.141
729.573
727.033
727.209
748.636
730.936
736.106
731.607
729.632
727.409
728.271
729.064
718.806
728.968
709.024
756.078
728.949
773.862
709.657
633.909
709.705
642.99
417.225
740.246
241.02
588.43
405.115
556.092
459.295
387.906
371.809
267.735
414.969
197.802
742.039
734.159
594.468
715.742
679.572
724.847
741.447
411.471
667.009
487.612
572.334
420.677
736.702
425.452
613.609
-2.6737
396.581
174.082
442.75
737.828
724.84
690.887
726.506
849.681
725.36
699.583
479.797
698.713
450.001
737.197
398.255
686.322
373.048
2.1568
409.776
18.4086
467.516
413.27
13.5193
724.988
708.335
731.666
710.995
722.238
714.408
727.852
710.044
731.166
724.677
714.112
727.338
625.731
431.189
-14.3597
692.95
398.956
626.628
445.784
23.8508
-12.0379
-1.45716
409.237
24.5427
432.589
-1.53556
670.016
198.113
-23.639
537.512
675.953
252.558
-125.56
733.334
-85.8846
-96.8882
711.849
731.341
-146.071
-95.2351
-52.3865
-81.9278
-56.6442
729.721
594.586
-88.6315
-57.9749
-18.5488
-43.2848
-24.8717
654.982
447.006
-46.9404
-22.5867
-2.68019
-11.8727
-6.73961
-1.14184
-11.4849
-6.22383
-87.2407
25.8286
-85.7845
-91.0814
-11.2677
-69.0649
-52.8098
-50.4516
-83.9169
-59.0695
-65.6219
-53.1979
17.6266
-35.485
-4.20542
-59.541
-6.29629
-33.3568
-35.8936
-28.1751
-59.6851
-52.5114
-43.7997
-42.8407
-31.016
6.1193
-18.7771
-2.70778
-21.7637
-0.732556
-15.9481
-26.0284
-18.3765
-21.491
-28.2934
-36.2769
-20.4842
-26.3849
15.9975
35.4353
9.55471
32.0598
13.9897
32.4622
3.04778
-5.34387
8.25124
-4.55381
-3.82899
-8.73783
4.85831
3.59168
-21.7864
-6.7922
-9.32677
-12.7845
-12.4038
1.80586
-8.31484
-9.8601
-4.7244
-2.39942
-11.1695
-10.6118
-5.86865
-2.1667
-3.50345
-0.181901
-0.4581
-0.547591
-4.12214
0.319593
-1.11591
10.2681
32.7637
7.76299
-4.77917
8.36192
3.4757
-7.961
2.31205
-6.24922
-1.42856
-4.45625
-1.83694
-0.0413426
-1.09569
-0.973652
-8.55997
-15.7488
-14.2127
-11.7826
-5.61284
-3.9202
-0.422705
-2.47656
17.3604
0.583388
16.4038
-2.66199
16.439
0.165569
-13.2928
-11.7173
-19.4317
-5.40402
-9.49376
-10.6218
-19.3326
-12.2859
-19.3625
-21.3044
-14.8491
-14.2066
-19.6053
-21.137
-4.85059
-11.3588
-10.9698
-12.056
-6.71742
-10.4034
-10.3709
1.07906
-2.65559
-4.39409
-3.16342
-1.09502
-2.21439
-4.26848
-94.4309
730.571
750.13
-142.479
-102.488
737.38
748.039
-62.6838
750.045
-85.8629
-63.05
748.313
710.897
-32.062
-16.7401
-50.0044
-32.178
742.364
-17.8865
-7.63553
-15.6657
-2.79505
-15.8704
-7.64702
-22.5117
-3.16415
749.348
730.771
741.128
735.26
746.582
730.188
739.751