# Region type : patch outlet
#   Faces  : 3597
#   Area   : 3.262920e-02
#        Time	sum(phi)
          100	3.349682e-01
