/*--------------------------------*- C++ -*----------------------------------*\
| =========                 |                                                 |
| \\      /  F ield         | OpenFOAM: The Open Source CFD Toolbox           |
|  \\    /   O peration     | Version:  4.0                                   |
|   \\  /    A nd           | Web:      www.OpenFOAM.org                      |
|    \\/     M anipulation  |                                                 |
\*---------------------------------------------------------------------------*/
FoamFile
{
    version     2.0;
    format      ascii;
    class       volScalarField;
    location    "28";
    object      p;
}
// * * * * * * * * * * * * * * * * * * * * * * * * * * * * * * * * * * * * * //

dimensions      [0 2 -2 0 0 0 0];

internalField   nonuniform List<scalar> 
146404
(
-2.28402
-0.788168
-1.30661
3.02185
-4.60303
-3.24215
-1.39428
6.77107
7.54033
-9.65609
-0.398953
1.95874
5.93158
-3.42573
-3.29169
-1.26581
0.295813
-1.44196
-1.63679
-0.275809
1.91745
-3.39281
-3.3819
-1.56752
3.21492
1.26561
-3.1318
-4.063
-2.83114
7.04227
-0.482232
-8.94145
-5.9333
-2.00163
8.16891
2.49005
-6.27847
-4.65185
-1.63441
13.0969
13.9302
-13.5967
-2.12515
11.5593
3.39524
-5.88712
-4.80217
-2.42316
10.2921
5.07193
-1.08077
-3.11307
-2.38557
9.40904
6.82073
-0.076987
-2.61078
-1.99684
7.38648
8.14712
-0.222709
-1.42978
-0.960142
7.12885
-1.9875
-0.76311
6.80527
1.3664
-7.56546
-5.35875
-2.63795
10.1064
-0.768658
-11.868
-6.72046
-2.29087
12.4736
-2.01959
-16.2459
-10.4923
-3.20029
15.1731
1.39114
-13.0622
-8.4478
-3.35882
21.426
10.3079
-21.3546
-3.92387
18.8298
-0.543019
-15.2807
-8.77811
-3.68005
22.8987
1.97803
-12.597
-6.19419
-3.13998
17.5088
6.28758
-5.96885
-5.06971
-2.61181
14.7796
6.42614
-3.79306
-3.89797
-1.49401
14.2858
9.43999
-7.97336
-0.133231
10.375
-0.0752434
-0.960148
-0.466869
3.24473
1.22435
-4.65863
-3.57968
-1.42862
9.29955
2.84031
-9.84486
-5.37247
-1.15396
15.5055
5.88413
-16.9172
-4.9712
-3.02376
19.9858
-3.99297
-18.3152
-10.4422
-2.96937
29.3946
-17.1576
-24.5993
-17.2442
-5.30961
42.9004
-26.0073
-30.4906
-18.787
-7.73151
50.6192
20.0027
-32.2683
-8.50822
43.519
-21.159
-38.6033
-21.0828
-6.62261
30.0842
-13.401
-36.8504
-20.0121
-3.7132
30.3132
3.56263
-18.6754
-12.0516
-4.4606
24.4593
12.7512
-15.1762
-7.54811
-0.993126
16.7163
8.80865
-4.88869
-3.99283
-1.59407
11.0638
8.58277
1.12906
-1.22235
-1.18014
9.40772
3.3649
0.444134
-0.105855
1.21546
0.326958
-3.41824
-3.59063
-2.53902
7.53704
-1.75457
-10.3689
-5.61787
-1.94888
13.1289
-1.37923
-14.0215
-8.96893
-3.16842
32.5482
1.37138
-32.0317
-11.7043
-5.38337
61.3806
-17.9485
-51.1675
-24.4107
-6.31899
104.01
-133.018
-81.458
-29.0634
-7.63585
112.626
-171.73
-97.5344
-30.1333
-11.5378
137.114
-162.702
-29.2644
-16.1893
114.87
-187.671
-111.339
-34.8457
-11.9932
92.3717
-137.441
-86.5927
-35.274
-11.2976
60.4167
-6.43318
-60.9339
-33.196
-8.34792
38.3733
13.3837
-33.9923
-17.3885
-5.35433
21.5796
6.85312
-9.96472
-6.09282
-2.31396
15.9715
6.33302
-2.29296
-2.10168
-1.20288
9.99008
9.06362
2.08783
-0.505468
-0.980943
-1.88466
0.86618
-4.37243
-2.7366
-1.41723
6.07001
-2.16895
-7.00544
-4.58373
-1.90209
11.2048
-4.03023
-17.3597
-8.52514
-2.76923
23.0411
-12.4388
-32.605
-12.5901
-3.01754
63.4628
-134.872
-56.4068
-22.3561
-5.85619
137.303
-171.984
-96.3178
-30.0588
-7.62899
312.144
437.08
-30.6971
-8.33161
383.213
435.437
436.131
411.432
386.08
432.11
435.344
432.117
300.934
373.507
432.074
435.04
423.475
306.506
428.474
-35.5295
-9.41205
173.93
-36.6653
-10.3735
63.5041
-50.2325
-76.5479
-23.5601
-4.27567
27.9717
5.96001
-22.6468
-12.0474
-3.8075
20.3441
9.23724
-9.03579
-5.89565
-2.02986
14.8965
7.66409
-0.370098
-1.93162
-1.30993
8.55722
9.12951
0.83412
-0.440774
-0.453572
5.42515
2.25437
-9.01626
-1.70351
-0.384608
8.72026
-0.954102
-11.405
-6.28594
-0.861808
17.1163
-5.61479
-19.8541
-10.5017
-3.12596
48.1704
-56.9104
-47.0686
-18.6243
-5.07034
141.195
-143.152
-88.5214
-28.8847
-7.66705
376.485
438.462
438.105
-8.42323
414.003
431.412
433.823
403.53
285.473
415.539
427.596
431.548
439.91
313.968
414.24
426.453
432.115
423.656
271.506
409.927
425.953
430.56
414.163
317.496
390.787
426.324
431.772
398.959
280.576
345.761
431.938
434.129
426.584
-8.53285
173.013
-87.9903
-119.333
-35.3166
-10.0614
44.2231
-24.2747
-44.3432
-23.1485
-6.96202
27.8351
9.34699
-15.768
-11.3464
-1.63344
18.7948
10.6872
-6.36577
-4.91433
-0.605172
14.183
10.4076
-4.7204
-0.84942
-0.485452
4.99568
0.00929559
-8.7301
-4.17149
-1.74528
12.1347
4.72237
-15.0385
-6.65692
-2.95422
31.6976
-18.335
-5.73835
80.7511
-85.4943
-67.7923
-27.9692
-9.40522
305.859
-81.5118
-24.3438
-8.32117
414.744
431.871
436.124
390.017
264.826
419.068
428.777
435.319
370.505
256.388
417.623
425.813
433.881
435.468
290.999
416.418
423.721
429.992
434.473
209.341
414.89
423.919
432.037
457.864
332.188
409.187
424.258
431.471
351.202
310.858
386.24
426.473
427.855
430.484
294.583
301.392
426.798
433.14
-33.6701
-11.9856
79.9128
-71.3519
-90.3287
-36.4336
-9.89994
37.1998
72.187
-38.5418
-4.28961
20.8858
14.2029
-12.9356
-6.78953
-1.44223
13.633
8.56137
-2.97311
-2.22099
-1.27596
9.79832
0.085558
0.102969
-0.404159
0.518374
-3.11297
-2.45996
-1.72168
5.71928
-2.0311
-9.79264
-4.90086
-1.54295
11.953
-3.06913
-18.1872
-11.0408
-2.87341
34.7236
-21.5138
-28.8373
-18.368
-6.00905
92.8279
-174.316
-99.5043
-28.4756
-8.42571
380.99
437.264
437.514
439.106
-7.33243
418.212
430.678
434.593
390.011
253.21
419.155
427.467
433.53
461.772
220.546
418.696
424.831
422.012
302.612
246.057
414.118
422.135
414.185
344.846
245.099
415.085
421.476
417.148
298.351
238.406
412.858
423.073
430.332
444.125
175.228
398.973
423.071
427.676
410.869
237.338
345.16
430.928
433.905
383.887
294.362
117.487
-142.096
-95.204
-37.8044
-13.4801
28.4641
0.199375
-26.5923
-9.70833
-2.73933
20.0926
6.2086
-7.60144
-5.58715
-1.79383
14.327
8.26863
-1.91221
-2.72129
-1.56799
7.21549
8.5225
2.67178
-0.175933
-1.3349
-6.37997
-0.12278
-2.75237
-3.61529
-1.98117
5.74328
-2.13181
-9.75022
-4.90141
-1.66404
11.8858
-3.54836
-18.5337
-11.27
-3.12513
35.5279
-27.0825
-29.4441
-18.7879
-6.47104
115.823
-111.834
-106.399
-31.4006
-6.29331
387.301
437.475
437.643
421.165
418.674
431.214
434.984
440.009
317.659
420.216
428.349
441.872
452.522
214.911
417.541
425.982
418.451
332.238
258.772
412.683
421.08
407.702
349.745
256.961
412.413
421.65
415.971
341.94
251.925
414.318
423.931
429.083
462.952
218.133
402.69
424.083
429.177
442.755
242.708
352.924
430.538
433.334
411.969
311.246
135.945
-96.0491
-99.3334
-36.849
-10.5082
26.4418
0.786352
-23.3338
-9.92597
-2.33769
20.7547
5.96131
-9.27211
-5.42572
-1.70763
14.6009
7.93454
-2.42348
-2.92833
-1.5448
7.16721
8.1107
2.25297
-1.44624
-1.11649
0.542002
-2.79704
-2.34822
-2.08937
4.35731
0.601416
-6.60667
-4.80255
-1.87253
11.905
0.429205
-14.1026
-9.45859
-3.0562
37.6589
-11.1851
-29.4722
-18.7827
-6.37885
114.268
-185.344
-88.2116
-33.719
-9.29304
373.8
437.738
437.693
412.97
-8.00478
416.224
431.883
434.533
424.179
259.776
420.8
429.86
438.666
443.742
220.873
420.502
427.383
428.432
322.687
239.515
417.93
424.712
419.283
340.599
259.194
418.277
424.702
425.803
332.088
250.705
413.519
426.468
434.045
443.162
141.969
399.626
427.792
430.384
348.699
257.988
336.011
435.3
433.962
428.203
311.836
99.8099
-134.165
-116.038
-37.4689
-10.3465
35.7091
3.57553
-27.6056
-16.2258
-4.35122
20.2365
9.29005
-8.35198
-6.81618
-1.5684
12.5723
7.97123
-1.58625
-2.74685
-1.81214
6.44599
8.54572
1.85552
-0.439967
-1.52865
6.46845
2.44066
-8.23358
-3.96017
-1.36855
13.2121
3.86199
-14.7518
-2.61229
-1.42946
29.0801
-10.5016
-3.28277
71.2273
-68.8391
-73.0268
-28.0957
-8.99227
287.717
-94.6284
-34.5825
-10.646
397.408
434.201
435.592
439.697
281.964
416.712
431.027
435.917
430.631
217.106
419.311
429.564
434.296
446.149
327.331
418.993
430.728
448.69
447.862
233.862
415.647
428.562
434.472
433.947
251.164
409.037
428.232
432.07
369.441
246.891
385.134
433.063
431.886
367.806
286.07
290.528
430.799
435.619
-35.0483
-11.8493
63.878
-77.6765
-71.2778
-33.4096
-5.7272
28.6468
20.7923
-34.7048
-1.20822
17.8476
13.7784
-15.8557
-10.5523
-1.10707
12.1012
10.7685
-5.04189
-4.66979
-0.533846
8.30076
-1.41609
-1.4983
-1.00955
3.30146
-0.275665
-10.7992
-4.03059
-1.57316
7.00839
-1.91353
-9.07348
-6.11131
-2.22689
13.1871
-4.1852
-19.0725
-9.96275
-3.31938
36.5514
-32.0884
-36.0551
-14.9519
-3.61256
132.986
-126.146
-100.511
-33.4918
-10.4419
332.4
441.218
440.678
-11.288
393.188
435.562
435.59
431.196
255.632
406.44
431.301
434.925
446.991
242.73
408.57
431.359
439.946
356.228
158.149
403.753
430.588
433.971
444.609
254.036
385.339
434.119
432.252
404.196
278.174
338.022
436.556
435.788
339.824
-9.78246
94.9606
-169.604
-79.728
-29.3401
-4.18143
18.6402
-3.41802
-21.348
-10.8607
-3.85731
12.5254
0.197065
-14.1025
-8.99673
-2.05363
11.2438
2.06999
-6.47011
-4.68306
-1.67702
8.86937
5.73084
-7.31556
-1.67533
-0.46279
-4.49206
0.0508674
-4.78335
-3.03471
-1.71635
2.97061
-0.854165
-5.18166
-4.4206
-2.28415
7.93851
-1.38101
-11.6175
-6.66898
-2.28814
19.2965
-5.53237
-18.3612
-12.2996
-3.91163
49.3092
-39.0699
-44.9679
-23.8789
-4.51865
110.37
-153.322
-77.9263
-36.2477
-10.9063
280.754
438.473
-92.8862
-34.0771
-10.023
353.209
438.244
439.002
395.346
361.691
438.042
439.741
405.167
317.074
352.698
437.844
437.795
425.169
283.925
435.58
-24.5485
-9.34537
94.8637
-29.8706
-7.63801
40.3017
-21.7922
-36.2788
-19.7435
-4.36712
12.6901
-0.292586
-11.8615
-6.96818
-2.56682
7.96312
0.575652
-5.79958
-3.48358
-1.43455
6.31176
2.5371
-2.75422
-2.53796
-1.55213
2.76554
4.03914
-2.31252
-2.21041
-0.665335
-0.766824
0.397491
-3.28788
-3.43653
-2.16696
4.36956
0.028824
-6.52058
-4.05978
-1.6468
10.463
-0.185532
-11.4471
-7.06353
-1.69738
25.0212
4.08901
-28.7866
-14.7627
-2.53466
39.1098
-15.4489
-34.3536
-17.3056
-3.57917
55.421
-90.5214
-60.7683
-21.1306
-5.6677
71.5486
-158.27
-61.6564
-23.4711
-7.18753
78.2194
-203.36
-24.4137
-8.07766
71.986
-163.03
-64.9518
-21.252
-5.94537
51.9373
-70.6695
-54.2619
-20.0188
-5.21988
34.8752
-14.1253
-41.5226
-23.4066
-3.86424
21.7679
3.2565
-28.5688
-14.5164
-1.13755
11.4655
2.28265
-9.35106
-6.83007
-1.90084
6.62076
2.02253
-4.4001
-3.56491
-1.8415
3.23166
2.9383
-1.659
-2.43445
-1.59439
1.73624
0.583441
-5.03241
-3.48938
-1.73384
7.98198
1.92234
-10.203
-5.23133
-1.5442
11.1494
2.09275
-15.5048
-3.98346
-2.4168
10.6761
-1.57066
-13.1654
-7.09277
-2.59322
12.9244
-4.17307
-18.0182
-9.94682
-2.91577
26.6604
-8.20405
-24.5036
-16.056
-3.32903
32.3142
-16.2278
-22.0436
-3.75852
14.9974
-10.8266
-25.1668
-8.93393
-3.11937
11.6447
-2.06704
-14.323
-8.14665
-2.96397
13.6425
-0.761921
-13.9376
-9.93406
-2.75107
11.8397
5.00627
-16.0875
-9.43316
-1.3473
8.57651
5.29685
-9.16832
-4.03028
-0.831879
4.08448
3.66946
-2.55584
-3.01691
-1.71609
3.76415
-0.651239
-1.52758
-1.46607
4.54898
0.9649
-0.802424
4.4345
1.03497
-6.22482
-5.08562
-1.88604
6.58534
0.263305
-7.0078
-5.18567
-2.38619
6.98354
-1.29347
-9.25523
-4.84302
-1.60416
10.8124
0.638611
-10.7661
-7.77917
-1.36778
14.887
-0.631175
-12.078
-1.87802
8.19309
-1.75954
-10.4874
-4.38286
-1.90783
8.9189
-0.191204
-6.70609
-4.20289
-1.7188
5.99254
0.502774
-6.56297
-5.12238
-2.44061
5.02674
1.92761
-6.59775
-4.81814
-2.25146
6.3513
10.0162
-12.5052
-7.29585
-0.793765
-4.10289
-1.39864
-1.00047
-2.44886
1.51107
-4.13466
-2.68254
-1.33743
0.88357
1.09744
-3.01952
-3.38912
-1.82257
2.85436
1.10665
-4.29911
-3.24584
-1.99318
5.06904
1.73632
-5.91203
-4.42161
-2.01679
8.93721
-0.466369
-5.97734
-1.03738
5.05497
0.21221
-6.12833
-4.46998
-1.9804
2.40523
1.04824
-3.7017
-3.54284
-1.7212
1.27545
1.65409
-3.32061
-3.74149
-2.09851
-0.656044
2.15164
-3.41124
-3.0974
-1.51216
-3.35238
2.74947
-3.82605
-3.38818
-2.00545
0.080659
-1.43475
-1.53753
-0.608323
-2.66803
2.46695
-5.45536
-3.46025
-1.54199
-2.40216
-1.288
-2.1456
-3.17846
-3.85699
-3.20774
-2.00991
-1.65336
0.00087923
1.7651
12.0409
-2.80903
0.503437
-9.87496
-3.57651
-3.9991
-10.6894
-6.25011
-3.28001
-1.8148
-5.97694
-0.703152
-1.44922
0.00755226
-0.568138
0.132903
2.10785
22.2191
8.35942
7.27062
6.92727
-2.37227
-3.41233
-4.10491
-12.2892
-0.467162
-2.99315
-1.36512
-0.42061
0.231374
-1.00011
-0.068526
7.30514
6.17433
-1.58856
-2.84399
-3.90494
-2.95982
-1.38376
-1.13843
-0.0793818
2.65151
2.054
-2.21079
-2.73113
-3.38433
-2.75744
-1.70662
-1.51306
0.0636089
-4.14683
2.57112
0.156459
2.55287
1.9387
-2.09513
2.00015
-1.07718
-2.64447
-3.29157
-2.47792
-3.6552
-2.66309
-1.70725
-3.40349
-2.63309
-1.51249
0.00307054
-2.14298
-0.313148
0.795465
2.66415
2.75158
2.72506
2.03458
-1.14195
1.73503
-1.48812
-2.51249
-3.59245
-3.17893
-4.18264
-3.35643
-2.92828
-3.94192
-3.17683
-2.40879
-0.433411
-2.50979
-0.380621
-1.84844
3.46022
3.12327
3.08165
4.48022
3.90995
2.83652
-2.22437
1.83646
-0.576738
2.09873
-1.43397
-3.88748
-3.70594
-4.0953
-3.89049
-4.56436
-5.03797
-5.27596
-2.86253
-2.74721
-1.95472
-3.79714
-3.04053
-4.21187
-3.47272
-1.49981
-0.248402
-2.02608
-0.781789
-2.21482
-0.920067
3.89831
5.9129
11.9549
6.10906
5.58747
9.01936
11.7043
-3.17354
3.91797
-10.2966
2.8066
-2.0467
0.00685681
-12.6517
-4.42054
-10.7107
-7.72127
-5.103
-5.09072
-13.7315
-9.93724
-1.91065
-2.75157
-0.834134
-3.53446
-3.17327
-3.30764
-0.602008
-0.252116
-0.557614
-0.125132
-2.02396
-0.795141
0.282432
-0.243596
17.2094
2.37621
8.42818
11.2098
20.917
9.44341
9.10219
6.58151
-1.83148
12.866
5.99426
-1.85676
-3.843
-4.28108
-10.4791
-3.65979
-5.61151
-0.554735
-2.6857
-1.66246
-12.6713
-2.15124
-4.85156
-2.73884
0.0113331
-1.06745
-0.389267
-0.749639
-0.379022
-2.11673
-0.875771
7.39777
7.37912
8.43965
7.6378
7.78812
7.31784
-1.40456
6.80914
0.718456
5.12453
-0.121894
5.21721
1.53807
-4.80172
-0.188416
-1.97862
-4.18656
-5.17484
-1.47696
-2.68176
-1.79737
-1.77686
-1.54314
-4.00325
-2.93051
-3.06192
-2.73422
-0.313111
-1.4645
-0.106962
-1.98645
-0.813664
-1.77688
-0.847068
8.0776
7.89179
7.38223
8.53857
1.22321
6.38373
3.35869
7.40485
2.96162
-1.5387
0.0452537
-2.15239
0.93677
-1.8243
-1.53091
-2.80433
-2.8108
-2.19008
-2.09873
-0.0959362
-1.90133
-0.764655
-1.61261
-0.394763
7.12061
8.62192
5.42921
9.00235
7.57894
2.99042
8.26292
2.71626
1.03151
-1.5517
0.779904
-1.05256
-1.73175
-1.78562
-0.686185
-1.31119
-1.57921
-0.375358
-1.06103
-0.266082
4.7962
9.11315
8.29684
1.69782
0.686085
-1.35132
-1.06606
-1.35125
-1.13173
-0.182903
2.91941
25.2022
-0.1088
-0.359165
-0.536307
-0.00632194
-2.40616
2.81662
4.3569
9.54417
4.04229
4.59403
2.17958
-2.70943
-1.35614
1.57129
-4.1512
-3.71591
-3.69276
-8.70996
-6.73669
-6.28893
-2.64216
-1.88556
1.43905
-1.42715
-3.42939
-2.26215
-1.55309
-0.217616
-1.1057
-0.265192
-1.45927
-0.557338
2.9066
2.24526
2.77667
4.05721
4.21979
4.82872
3.84522
-2.13076
1.51119
-0.795286
1.29904
-2.95483
1.02604
-2.54434
-4.06477
-3.25129
-4.11046
-5.67814
-6.03772
-5.18421
-5.35805
-2.09106
-3.80475
-3.30104
-4.61344
-3.49558
-4.5364
-3.84725
-0.311426
-2.09243
-0.83458
-2.02032
-0.875147
-2.50162
-1.02644
-3.07267
0.668611
-13.1715
2.00455
-5.88004
7.36052
-19.4762
-6.08838
-14.1888
-10.7092
-9.39105
-8.4029
-20.0756
-16.7141
5.77767
-2.88816
10.1079
5.84014
-7.81657
-11.6401
-4.44094
-6.46915
-17.9753
-9.69711
-9.3204
9.39026
7.70456
9.56237
13.0818
10.6003
11.8175
10.9587
9.86282
11.4752
11.2377
12.4333
14.923
1.86708
7.33053
0.9931
10.759
-5.43061
-1.87188
-2.92022
-3.84542
-6.54605
-4.59661
-1.21239
-2.7493
-2.12878
-1.14084
-1.67716
-0.206509
-1.40134
-0.667377
-0.871168
-0.354857
12.3274
18.0739
12.9399
-7.45855
10.6703
-0.0606058
-8.03928
-5.96002
-1.52255
-2.22043
-4.2816
-0.266688
-1.19398
-0.407989
-0.346701
-0.130794
-0.206521
0.137519
0.0775134
2.8679
1.89817
-1.99373
-3.51805
-3.97812
-3.18752
-2.28765
-1.7176
-0.238372
4.5978
11.7246
1.64551
3.36474
5.33253
5.45587
33.6745
1.78607
-1.88605
2.50455
-6.08154
-25.0868
-4.4504
-4.71983
-7.5504
-5.83633
2.46432
-1.01079
-2.95613
-2.05096
-2.84657
-2.01038
-0.749007
-0.211676
-1.40465
-0.559562
-1.53509
-0.884656
2.48294
-6.82686
3.60733
-8.68623
4.58622
-17.4305
-8.12339
-7.2248
-10.0418
-6.30798
-16.3222
-12.3148
-9.36185
7.17062
-21.1649
-4.28233
-17.9101
1.08037
-38.8005
-11.3624
-21.4669
-18.5555
-19.9887
-17.3969
-33.6117
-29.6224
5.01676
-11.17
16.341
1.19081
-24.9981
-19.6153
-12.7647
-12.2656
-30.4897
-26.5237
-20.3233
-1.79288
11.5284
-6.47977
11.6497
-9.47185
14.8833
-7.02404
-5.31744
-7.22683
-5.53277
-11.7603
-10.4208
-8.30313
-7.38676
20.218
6.25069
12.5141
15.3119
16.2287
12.3364
12.624
10.4905
0.344089
12.3364
-2.64236
9.49551
3.29277
-6.41838
-2.15359
-2.18634
-6.17338
-6.33964
-1.43718
-2.77398
-0.4739
-0.788511
-0.736553
-3.42188
-1.39176
-2.10718
-1.62142
-0.0301574
-0.553962
-0.0198165
-0.906097
-0.518011
-0.98772
-0.515859
11.9509
10.4717
11.147
10.0512
1.02117
9.53718
3.43907
9.61875
4.21265
-1.80242
1.00292
-1.3103
3.0576
0.0736045
-0.624911
-1.42288
-1.29963
0.289417
-0.386355
0.0320174
-0.932341
-0.246266
-0.296946
-0.169248
-2.59399
1.38172
1.29815
-1.72615
-2.85447
-3.66902
-3.20054
-2.23712
-1.62071
-0.177635
0.914961
2.5596
-0.841976
1.41585
2.23498
2.03528
1.19639
-0.9563
1.12917
-1.72903
0.441242
-1.96468
-3.35885
-3.97826
-2.82101
-3.62443
-3.94716
-4.19114
-3.4123
-2.9388
-3.39509
-2.74036
-3.67156
-3.09002
-2.00469
-0.82211
-2.09588
-0.271271
-1.90964
-0.760095
-8.86093
1.4409
-20.4095
0.563712
-7.61901
4.26474
-20.2962
-8.14787
-17.531
-16.0027
-10.556
-9.74929
-20.7108
-15.6034
-18.1272
-2.21051
-15.1731
7.07158
-27.1343
-2.99159
-34.5968
-12.4527
-15.5073
-13.6265
-25.9981
-15.8763
-37.1562
-26.0061
-36.6525
1.01927
-44.4783
-112.132
-111.878
-118.343
-87.8218
-24.8846
-38.0717
-31.7726
-57.8724
-34.2469
-72.2131
-33.0363
-8.23472
-36.8749
-88.4594
-127.682
-110.504
-32.3758
-36.368
-27.1343
-33.1063
-80.7079
-39.1194
-12.5175
10.7166
-12.7195
3.38826
-40.6214
52.1237
-17.211
-15.2907
-14.3401
-42.6472
-32.2877
-32.0751
-13.6116
13.1511
-6.49055
22.6088
-32.8403
11.6973
-6.5819
-12.6703
-9.44362
-8.74269
-30.5227
-25.3134
-10.242
-10.3831
11.3738
3.78467
10.2336
13.0022
11.4434
10.3583
10.3211
5.00551
9.50694
4.94844
8.30722
4.00803
8.74982
5.91614
-0.602728
2.78214
0.0363355
-0.488753
-1.37479
1.74644
0.0540267
-1.35529
0.0253253
-0.407812
-1.74422
-1.63698
-0.841491
-1.16058
-0.745084
-0.368366
-0.175262
-1.41094
-0.83473
-1.19535
-0.847703
9.84128
8.87516
9.7576
4.53361
8.95421
4.98323
0.186946
2.61893
0.242482
-0.129975
-0.206384
-0.398323
-0.0705089
-0.559115
-0.281714
0.41502
-3.15776
-3.5939
-2.98919
-2.46826
-1.73137
-1.72668
0.425182
-1.37512
1.15147
-5.3985
1.32867
1.76413
1.1549
0.909518
-1.70199
0.7477
-3.05117
0.171568
-1.76892
-2.83747
-3.53115
-3.478
-3.09867
-3.59955
-3.86585
-3.23472
-2.60888
-2.72591
-1.82373
-3.24782
-2.75603
-1.9641
-0.216065
-1.70343
0.0910073
-2.00434
-0.789505
-32.3523
-8.08671
-46.6822
-37.5992
-53.0415
-127.466
-104.323
-19.6208
-45.8535
-37.7791
-45.9539
-28.2835
-85.5799
-38.2204
-56.02
-142.327
-111.895
-13.2679
-159.093
-124.104
-34.5752
-67.2182
-41.0005
-39.1707
-92.476
-39.3437
-138.661
-140.595
-132.608
-112.652
435.132
437.249
-50.4121
-103.948
-38.6676
-99.0423
-39.8623
436.602
-15.7087
-28.6187
-15.4405
-29.9366
-12.3371
-12.6071
-2.71955
-8.35526
-2.88034
-8.5951
-2.41
-9.89479
-1.14332
-153.463
136.367
-234.527
337.053
430.97
347.172
425.785
-130.575
-215.606
-91.6636
436.806
437.221
433.827
437.001
-37.3026
-74.8845
-31.932
436.582
388.687
436.579
367.36
-18.3635
-27.008
-19.3829
419.182
-13.6859
445.908
-3.8433
-16.0371
-5.27163
-11.4944
-1.42652
-6.62355
-163.131
120.088
-199.232
347.529
425.78
339.579
425.006
-206.356
-130.193
433.44
436.052
433.489
435.916
-31.8828
-93.3199
-40.171
435.651
405.266
435.446
359.176
-19.0964
-32.5978
-21.454
430.225
408.003
-15.3257
-5.78219
-14.4429
-5.66896
-7.11113
-13.8568
-4.54989
-145.607
-126.837
-135.133
434.198
435.983
429.677
-44.1811
-110.997
-55.4643
435.478
386.778
-44.0099
-20.3561
-32.8301
-19.6304
419.12
-15.989
-37.1543
-15.2503
-4.26741
-9.63023
-2.92442
-14.2356
-3.56251
-10.8996
-1.14762
-125.292
-95.165
-120.172
-122.968
-105.82
-151.574
-56.3695
-83.0367
-51.8223
-106.132
-46.1992
-135.938
-46.5253
36.1615
51.685
41.9874
101.974
-12.013
71.3295
23.9128
-64.6162
26.2586
-42.902
-27.6686
-77.155
-40.3891
-38.7427
-34.9595
-70.3937
-43.9673
-19.3208
-30.0161
-16.5115
-44.3366
-23.8343
-33.8536
-17.6231
-27.5727
8.72122
-8.22447
-7.41953
-38.9168
3.77913
-19.6617
-26.7203
-15.4832
-15.8636
-43.6206
-36.2986
-24.1595
-21.6483
9.90113
12.0999
10.8492
9.08557
10.3806
6.21061
8.39411
4.97868
9.27314
4.0908
0.315867
1.04769
-0.230718
2.07655
-0.159675
-0.757309
-0.717946
-1.03229
-0.310195
-0.865458
-0.704066
-0.946177
-0.50745
-0.795113
-0.392162
7.86958
10.111
9.49008
2.89431
1.87846
0.343102
0.780777
-0.377243
-0.61591
-0.138548
-6.11375
0.923883
1.14009
4.67999
0.274281
-3.58368
0.249745
-7.22179
-3.99065
-2.51697
-7.70904
-4.30513
-2.20589
-1.31951
-1.585
-1.44786
-2.39717
0.208302
-1.15693
-0.195005
1.62601
2.66288
1.94171
2.54978
2.83437
4.65477
2.86751
-3.48953
-0.510617
-3.21062
-0.810079
-6.02868
-1.20665
-5.61562
-3.65071
-4.99205
-4.94878
-6.79073
-5.42771
-6.68653
-5.94685
-1.93435
-3.69482
-2.85818
-2.63165
-2.07973
-3.59445
-2.97243
-0.244404
-1.93889
-0.651673
-1.32024
-0.376778
-1.99758
-0.731333
-103.55
-202.889
-113.91
-154.692
-137.898
438.494
-36.1571
-86.9787
-39.6588
-78.2683
-43.2117
-31.3729
-109.653
-112.243
438.645
438.799
433.222
436.547
-37.4727
-96.6557
-35.7573
438.613
-29.5048
434.352
372.623
-12.6837
-30.2575
-11.5738
-24.2184
-9.89581
422.361
300.597
-2.30389
-8.29891
-0.911655
-7.60726
-0.555045
295.198
435.172
437.091
433.898
435.696
430.779
433.796
-36.5967
436.098
460.693
432.831
403.235
432.644
414.376
-11.3612
426.788
403.303
296.176
417.861
327.662
-0.704998
-8.95101
-0.382742
297.796
8.21934
257.579
4.89361
436.646
432.258
434.692
428.068
432.697
426.946
431.213
403.388
436.155
347.916
432.267
412.159
431.802
440.913
453.742
347.498
442.954
294.837
444.376
237.031
-0.609305
324.731
-5.34007
231.905
1.96762
294.573
5.23796
434.439
432.062
435.199
426.351
430.788
425.626
430.353
407.67
434.621
393.427
431.789
433.394
430.071
475.687
315.345
414.272
317.423
423.67
288.612
369.627
281.85
-3.84631
-1.73888
286.9
283.981
2.21617
435.635
430.417
435.146
426.989
431.156
429.239
432.427
377.156
434.559
-41.7701
430.642
416.69
430.474
379.061
-34.4686
-13.1714
349.873
208.481
410.967
263.765
-1.52195
-10.9903
-0.823307
223.866
3.10915
297.809
-5.56596
435.357
-105.095
426.912
433.062
432.55
434.69
-42.5344
-45.198
432.586
552.358
433.948
412.178
-12.9259
-41.2348
-14.4194
405.501
309.011
395.036
-10.1778
-0.946764
-10.7203
-2.99639
290.555
-7.62851
-8.49122
-0.47415
-169.658
-144.91
429.872
434.979
-92.4147
-134.517
-91.6598
-56.0619
434.516
412.061
-109.308
-50.5168
-18.6778
-28.1126
-17.1626
-11.0092
-31.5931
-21.6255
10.5204
12.8283
13.0366
2.78421
9.62559
-1.42187
-0.594823
-3.28437
-2.48513
-0.720455
-0.740089
-0.418767
-0.0154023
-0.453459
-0.263799
2.8276
5.35179
3.75154
5.89545
0.751448
-9.26465
3.6184
-8.11469
-9.05116
-3.35168
-9.30674
-7.11717
0.133418
-0.92663
-3.70057
-1.55879
-0.637924
-0.0419664
-1.11094
-0.330385
6.33105
6.88478
4.45393
6.51527
6.72754
9.15552
9.3174
-8.79388
0.00441377
-10.0409
3.47631
-8.11389
2.37469
-15.9042
-4.13341
-10.341
-7.57208
-9.70374
-8.2272
-17.1222
-5.78853
-1.37841
-5.72865
-1.71701
-5.72517
-1.65374
-1.63562
-2.34577
-10.9078
-3.38232
-14.877
0.573672
-17.3647
-5.05923
-8.76831
-16.1077
-14.2348
-17.9784
-6.99165
-26.4733
-18.8125
-18.1687
-30.9541
-5.41255
-36.549
-27.5176
-65.7927
-16.2706
-29.667
-22.6151
-32.633
-27.9218
-59.0526
-34.4402
-67.1151
-183.762
-123.027
-64.5068
-82.01
-180.628
-120.703
-30.2408
-70.9485
-41.829
-67.2253
-41.0313
-82.5073
-34.5024
-130.597
438.505
439.199
-107.54
434.395
437.624
-36.4758
438.806
-29.9579
-87.6703
-30.4177
436.883
459.829
-11.7703
-24.2609
-10.1193
-24.586
-11.9613
405.586
282.51
-1.6196
-8.42917
-0.599103
-8.78293
-0.948555
292.87
-2.99899
435.497
415.885
436.351
368.269
436.182
384.891
-9.91161
430.919
296.444
349.049
257.516
372.793
143.264
-0.0664563
285.661
290.216
-8.93289
272.151
-0.345479
422.209
432.939
356.044
436.289
418.733
433.29
454.66
290.873
416.766
284.039
422.529
257.67
438.527
215.701
1.1568
318.229
3.61158
276.497
-1.07589
212.177
-69.2752
409.641
431.72
439.328
432.077
556.038
431.245
623.315
304.786
444.251
216.51
422.076
220.752
436.725
276.872
0.355208
287.674
5.33267
89.8294
272.481
-29.9703
429.362
430.124
413.776
432.274
470.636
431.931
428.866
260.938
361.528
292.22
431.038
0.914892
438.335
188.633
256.624
-1.35216
193.493
-62.4067
375.257
431.426
442.608
431.611
445.948
431.518
421.683
264.186
420.542
282.51
453.482
226.936
376.827
233.947
2.85136
319.987
-1.57256
170.305
267.114
-1.43156
411.886
433.6
410.131
431.082
206.646
429.221
410.772
275.81
418.872
400.454
166.129
431.56
270.437
-13.3782
0.0087373
262.003
1.47925
240.228
1.49601
435.03
-62.1619
-133.066
430.61
430.583
427.968
433.948
422.778
-110.927
-49.3069
429.883
410.384
432.931
-10.4687
-35.3202
-15.4393
433.12
271.974
-35.2645
-14.483
-0.256662
-10.9548
-1.18105
298.432
-4.09442
-12.3075
-1.80599
-150.565
-131.253
-149.609
426.711
-124.932
-150.267
-58.0747
-94.9204
-56.7348
-43.2391
-102.768
-52.8676
-19.9766
-31.5246
-18.5856
-36.0417
-16.3898
-31.0339
-19.7732
-46.3977
4.98991
-18.8422
-72.1093
-100.519
14.4254
-42.6902
-34.728
-24.9756
-22.9051
-79.1137
-40.8761
-38.7151
-36.3541
-9.24198
9.19511
-5.3017
21.5103
-36.969
16.6157
-14.9535
-7.44697
-7.50069
-34.4797
-31.1152
-18.5454
-4.16656
12.9509
-2.53037
11.9847
-19.0499
14.0577
-5.13863
-6.48781
-4.11048
-4.13107
-16.8902
-14.4015
-7.95728
-6.87896
15.3477
14.765
15.6499
7.24104
12.2018
-4.18071
12.8938
-2.07887
10.4128
0.337605
-4.0177
-4.67982
-5.18098
-1.73353
-1.39569
0.0616822
-3.60847
-0.0916708
0.177994
-0.248751
-0.0928464
0.0811556
-0.058113
-0.294696
-0.0957008
11.6356
10.1647
0.643727
-0.520017
-1.1079
-0.175912
-0.00847246
-0.0418991
0.00226119
3.07135
3.54988
0.980808
1.58663
1.64965
0.365064
-4.01443
0.775604
-2.82393
0.20943
-2.73643
-6.17245
-5.79842
-3.38299
-2.96811
-5.27691
-5.08562
-3.07276
-1.87363
-2.24684
-1.83854
-3.43041
-2.50515
-1.01436
-0.508296
-1.66137
0.337026
-1.22462
-0.390583
-7.58255
2.65225
-11.13
0.606823
-3.33438
0.380628
-5.67073
-7.8695
-12.6135
-8.1932
-6.82924
-6.96773
-9.37266
-8.94241
-13.624
0.932137
-8.61043
-2.48308
-15.4536
-9.80938
-13.623
-12.608
-19.7739
-16.4492
-37.0626
-68.2132
-8.49274
-28.801
-78.3183
-86.196
-62.7136
-33.1018
-28.8939
-21.1041
-67.4841
-35.6297
-32.6784
234.537
-179.13
109.049
-108.237
311.532
433.754
-76.4642
-195.238
-109.684
-159.549
-113.228
437.231
439.165
-36.1407
-87.9662
-29.71
-85.4918
-40.4399
438.596
-17.2801
-22.0225
-12.486
-30.7485
-17.1
-11.6205
-3.07553
-8.95281
-2.26738
-7.90043
-2.7199
-8.06972
-0.700369
-103.983
436.107
436.645
437.07
438.927
433.697
436.056
-28.3564
436.327
400.642
437.879
422.824
434.691
420.405
-11.4953
403.821
279.321
432.007
-9.40427
427.013
205.78
-0.747424
281.368
11.2143
-7.59264
-0.352283
258.315
-0.695011
558.103
434.774
426.392
434.902
356.315
434.459
359.7
255.101
410.647
248.71
416.387
266.813
444.365
122.943
1.98957
305.784
294.478
1.0401
256.92
-92.875
380.518
436.268
415.928
434.758
440.326
428.749
497.844
193.652
439.998
243.281
437.114
184.448
406.899
161.758
-0.311572
361.899
-30.6827
212.928
334.169
585.663
430.229
597.992
425.029
432.983
418.973
378.961
190.745
435.889
210.094
342.54
163.092
341.043
257.01
-27.925
230.653
-22.1551
227.008
251.016
436.006
419.37
415.272
418.593
415.574
420.227
415.831
418.403
428.808
423.486
429.298
422.359
418.828
422.303
421.905
479.973
430.834
502.212
418.085
376.431
416.922
356.364
172.684
453.413
67.1446
342.643
257.087
279.861
253.496
170.958
249.289
401.039
253.272
615.701
458.003
433.324
206.806
423.075
390.25
428.774
441.431
206.184
394.267
220.629
268.794
193.4
442.66
242.529
398.142
1.42161
221.614
581.943
263.401
384.685
428.443
412.575
429.547
562.837
428.267
398.511
203.176
427.609
306.897
437.729
236.391
422.622
182.882
-21.9225
263.87
-4.86428
315.849
219.286
0.332224
429.973
430.547
433.776
424.997
428.36
431.134
432.441
439.097
432.9
427.786
443.25
431.778
357.062
284.498
-14.0202
424.002
213.211
339.94
276.278
-4.91999
-12.0757
-2.47184
241.499
-13.6355
275.26
-5.68846
415.089
165.816
-47.0014
328.796
419.971
179.618
-124.817
434.003
-177.451
-149.115
432.773
433.8
-168.536
-145.761
-38.1942
-100.459
-42.661
432.623
327.639
-105.915
-47.6134
-15.5929
-35.2386
-19.7683
386.968
284.131
-36.9952
-17.1324
-3.49319
-11.8208
-4.49405
-4.06415
-11.6588
-4.40819
-108.429
34.5993
-154.31
-145.686
2.21976
-49.454
-43.5232
-36.144
-101.961
-49.8719
-48.7197
-34.4643
15.1154
-16.8159
9.09645
-29.6265
7.36481
-7.39431
-16.1734
-16.9269
-32.9596
-23.5804
-13.9848
-13.4858
-9.4063
10.6005
-2.94421
8.83528
-1.74836
8.77126
1.50584
-11.9932
-5.48947
-6.26775
-7.76676
-8.74451
-4.28818
-5.6847
12.9246
7.31316
11.6941
13.4219
12.0204
9.28299
10.3093
1.39668
9.36566
1.11631
8.37757
3.05464
8.78198
3.3805
-3.63691
-0.805483
-1.10955
-1.63649
-2.98704
1.40532
-0.784848
-1.59744
-0.461804
-0.922803
-2.65163
-2.04553
-0.690948
-1.18026
-0.50346
-0.826234
-0.224126
-1.33656
-0.454768
-1.06152
-0.320376
11.2495
6.4611
9.56893
1.11909
8.71121
3.20901
-0.748258
2.46993
0.030347
-0.393519
-0.0815493
-1.34378
-0.0534357
-1.25524
-0.140571
-1.56214
-2.92864
-3.5128
-3.33739
-2.44813
-1.97639
0.314879
0.71326
1.85872
1.37917
-6.36756
0.243802
2.00756
1.36009
-2.56954
0.105897
-2.46277
-0.105923
-1.86544
0.0871958
-2.37797
-3.09425
-4.98475
-4.54642
-2.97215
-3.75404
-5.09329
-4.7758
-1.93878
-3.47886
-2.7972
-3.57407
-2.65035
-3.75915
-3.03203
0.273337
-1.87309
-0.739112
-1.82955
-0.153385
-2.0036
-0.781273
-138.128
437.251
439.136
-107.884
-135.699
438.833
438.78
-38.7168
438.43
-106.301
-42.8155
438.466
431.208
-15.6111
-10.2868
-31.2685
-13.1656
437.017
-9.03316
-2.94048
-7.76963
-0.751804
-6.3
-1.67094
-7.46196
-0.475591
438.691
432.387
435.498
437.768
438.177
431.682
434.646
421.805
434.617
452.383
437.824
429.561
435.155
421.514