/*--------------------------------*- C++ -*----------------------------------*\
| =========                 |                                                 |
| \\      /  F ield         | OpenFOAM: The Open Source CFD Toolbox           |
|  \\    /   O peration     | Version:  4.0                                   |
|   \\  /    A nd           | Web:      www.OpenFOAM.org                      |
|    \\/     M anipulation  |                                                 |
\*---------------------------------------------------------------------------*/
FoamFile
{
    version     2.0;
    format      ascii;
    class       volScalarField;
    location    "92";
    object      p;
}
// * * * * * * * * * * * * * * * * * * * * * * * * * * * * * * * * * * * * * //

dimensions      [0 2 -2 0 0 0 0];

internalField   nonuniform List<scalar> 
146404
(
-7.94469
-3.80835
-10.3412
-6.30636
-12.619
-7.9843
-3.97615
-2.26574
-6.87391
-22.4092
-2.36553
-6.57522
-3.30878
-10.5643
-6.4726
-3.48401
-6.95458
-6.15579
-4.11463
-9.76074
-7.83457
-11.4972
-8.67827
-4.34448
-5.3884
-7.5381
-11.8668
-10.6355
-4.85566
-1.0101
-7.71079
-18.8426
-14.3207
-4.62598
-0.189898
-6.76397
-15.9777
-11.5673
-4.6063
5.21995
-1.07556
-21.3298
-4.27418
4.32602
-5.08121
-15.523
-11.6931
-4.93743
2.69465
-3.33251
-10.1743
-9.58689
-4.9302
1.73911
-1.83465
-8.20528
-7.93469
-4.09199
-0.0321895
-0.991113
-6.99214
-5.7055
-3.23538
-3.66579
-8.72419
-3.2046
-2.34735
-8.27968
-17.8656
-12.3997
-5.75877
3.19846
-8.57773
-25.3451
-20.0974
-7.94437
6.27136
-11.4339
-33.3097
-26.9212
-8.99826
8.68472
-7.23147
-26.3421
-21.1222
-10.4141
16.0741
-6.41201
-37.1732
-10.195
13.5419
-7.53444
-27.2439
-25.4895
-11.5442
17.3038
-5.39471
-26.2894
-23.5988
-11.8779
11.4132
-0.700933
-16.0423
-15.9526
-7.63097
9.57476
-2.60431
-12.7749
-7.72876
-4.55079
11.528
-9.35133
-8.0429
-1.48148
9.34059
-2.33178
-1.77871
-1.25983
-9.10252
-11.9866
-15.9385
-10.5156
-4.09288
-2.09028
-11.3272
-23.845
-12.7544
-5.56075
7.26411
-1.15846
-29.8685
-13.084
-10.3241
14.483
-11.8991
-36.2879
-32.7724
-12.5052
25.3283
-30.2455
-57.7743
-61.0957
-13.1205
39.0484
-31.6175
-73.9901
-52.9663
-13.2077
50.901
5.2314
-97.4952
-13.4181
40.3663
-22.6566
-76.4587
-58.5588
-17.6298
31.7319
-17.5169
-57.7794
-57.6037
-21.5682
28.4952
-2.10278
-34.1934
-37.709
-16.1215
24.5659
4.2297
-27.3247
-11.7474
-8.95547
17.7274
9.86863
-8.77183
-8.53773
-4.89802
12.0502
8.66343
-0.629431
-3.42324
-2.61357
9.47059
3.16023
-0.485654
-1.6908
-10.9368
-11.9896
-14.3847
-10.5581
-4.48274
-4.54596
-13.5067
-25.6235
-15.5649
-5.21544
1.59362
-15.212
-33.5113
-24.7943
-8.74211
24.7489
-13.794
-57.0366
-27.8465
-12.1392
59.5821
-20.4346
-97.2354
-115.664
-20.4294
105.334
-78.5788
-161.717
-147.01
-30.9788
120.649
-91.2402
-160.306
-152.411
-35.8919
152.443
-66.8304
-138.823
-27.5414
121.663
-99.8737
-158.354
-157.794
-44.1783
98.6083
-74.4309
-137.489
-177.616
-57.5619
68.1586
-1.95734
-91.4293
-147.444
-42.975
45.7851
24.697
-41.7966
-60.1887
-23.3207
27.587
11.0458
-16.1922
-21.422
-10.9991
18.9601
9.48815
-4.06581
-8.28127
-4.37875
12.3261
10.4635
1.89678
-3.28561
-2.6312
-13.6685
-11.9761
-14.7792
-9.11215
-4.12456
-5.8302
-14.2938
-19.3778
-14.8016
-5.26225
-0.934705
-15.6161
-38.5175
-24.7605
-7.95612
12.3883
-29.9783
-88.2314
-48.0952
-12.4436
58.2025
-114.062
-175.237
-130.651
-16.5592
143.411
-95.6364
-152.228
-174.129
-26.7533
312.803
436.484
-130.767
-21.4748
383.593
434.787
436.037
410.995
387.029
431.831
435.495
429.305
305.411
373.293
431.207
434.918
422.749
306.869
430.396
-149.622
-46.7788
185.375
-118.214
-72.5934
82.8084
-12.2081
-71.5078
-134.726
-47.5233
39.1632
8.94608
-41.636
-58.2384
-21.8267
25.9703
16.6511
-11.2105
-19.7665
-8.30312
18.3654
9.96714
-1.95032
-5.82382
-4.49381
10.6747
9.82637
0.991985
-0.955571
-1.68271
-5.14781
-11.1389
-21.5623
-7.48398
-3.10698
-2.11689
-14.1559
-25.9555
-15.0602
-5.26367
6.15152
-18.7287
-44.1687
-29.316
-9.00501
37.1101
-74.7589
-125.777
-66.2676
-14.1929
124.381
-149.933
-212.252
-134.944
-18.2161
374.649
437.888
438.78
-14.9801
413.628
431.327
434.928
406.145
304.157
414.951
427.832
432.419
438.236
331.461
413.755
426.427
432.614
425.406
283.523
410.192
426.263
431.059
416.902
331.687
392.202
426.74
431.911
399.74
294.403
351.032
432.745
433.476
424.364
-63.097
185.461
-23.3076
-67.8142
-141.347
-80.9665
66.317
2.88564
-68.5468
-119.544
-39.496
37.6644
17.898
-21.861
-29.1729
-14.3069
23.3609
14.1978
-9.13938
-10.0528
-5.18618
16.3582
11.6488
-6.16937
-0.0367577
-1.97629
-3.78943
-8.76192
-18.0863
-10.4736
-4.76725
3.88982
-3.59992
-27.8306
-13.8738
-7.20827
24.9939
-38.3528
-11.0934
83.6153
-82.7444
-169.19
-118.794
-14.3058
304.004
-210.095
-120.053
-8.18995
414.434
432.011
436.775
391.989
274.333
417.76
428.431
435.912
378.976
265.955
415.905
424.775
434.78
431.79
329.978
414.172
422.168
430.814
432.203
211.697
413.868
423.411
432.742
455.102
316.071
409.986
424.484
432.364
352.007
296.713
389.032
427.438
428.427
430.269
312.351
309.392
430.236
433.183
-119.386
-68.3017
106.773
5.03833
-65.4193
-122.133
-47.515
49.5736
92.5572
-176.026
-19.0646
25.9665
16.7078
-18.0567
-12.7673
-6.34088
15.1281
7.51716
-6.15529
-5.02749
-3.83569
8.79042
-2.02443
-2.02692
-1.8359
-7.44011
-10.7586
-8.51499
-4.7015
-1.55681
-8.14385
-19.6679
-13.4211
-4.66322
6.02578
-12.5151
-38.4415
-25.8366
-8.2288
29.9092
-30.2569
-73.0149
-52.134
-12.2231
99.7212
-67.5726
-183.555
-121.259
-26.1101
381.688
437.414
438.183
438.665
-0.736274
417.682
430.756
435.454
388.068
260.341
417.556
426.431
434.252
458.608
165.803
415.123
421.453
425.71
289.504
231.054
408.92
417.706
415.182
338.272
259.029
411.397
419.148
421.039
289.576
225.22
412.696
422.941
431.282
440.16
177.709
400.653
424.091
428.776
412.829
257.164
352.13
431.62
434.065
385.308
311.489
140.908
-29.6596
-77.8464
-151.368
-73.582
39.1034
12.4429
-45.3445
-56.6186
-20.3037
22.8137
7.39812
-12.8095
-18.4583
-8.62052
15.3417
9.04562
-3.06793
-9.14369
-5.24268
7.43953
8.40237
0.890137
-2.78509
-2.91732
-13.9308
-7.15524
-10.4826
-8.58218
-4.58801
-1.15999
-7.74858
-19.2459
-13.6384
-4.84209
6.81499
-12.7065
-38.4627
-26.9445
-8.79771
32.4799
-31.7807
-76.3238
-56.732
-12.0988
117.239
-74.5889
-180.326
-124.482
-28.7772
386.199
438.351
437.888
421.847
418.248
431.419
436.334
441.918
331.878
418.219
426.627
442.809
450.66
204.066
412.857
421.076
419.581
331.416
278.127
408.783
416.711
406.053
339.07
267.946
407.392
419.199
413.964
334.218
263.487
413.658
423.268
429.34
455.606
212.204
403.388
424.674
429.762
442.4
261.485
356.361
430.987
432.552
416.046
315.139
148.214
-38.318
-97.5914
-151.645
-59.7308
34.4273
1.90121
-44.3892
-51.6144
-19.0391
22.4983
7.53613
-14.9715
-19.2638
-8.84438
14.6672
8.76609
-3.56757
-9.92794
-5.34515
6.86751
7.9164
0.385317
-3.57654
-3.40061
-6.96196
-10.2601
-7.92076
-4.63788
-2.86874
-6.81082
-15.4643
-11.8432
-4.53075
6.50809
-6.68853
-27.014
-22.8886
-9.04721
34.4541
-13.5554
-67.6186
-63.8222
-12.3058
127.062
-55.1691
-143.156
-154.025
-36.4411
376.11
437.466
438.43
414.107
-19.3733
416.351
432.318
436.196
427.665
279.109
419.425
428.976
439.113
438.946
211.473
417.345
423.689
428.07
321.409
232.345
414.071
420.492
419.818
330.811
269.887
415.611
421.804
425.312
327.919
260.006
412.951
425.91
434.305
442.439
143.787
399.627
427.636
430.998
352.418
265.037
338.744
434.804
434.713
423.138
317.79
112.038
-54.4465
-98.8429
-152.558
-31.5283
42.0851
11.9435
-46.9005
-66.9202
-15.4242
21.9522
10.9917
-13.5104
-18.9281
-6.07443
11.9309
7.0971
-4.73928
-7.77927
-4.79044
5.45566
7.15479
0.0394832
-3.56795
-3.12117
-0.767808
-7.00038
-16.9786
-8.20562
-3.83345
7.9402
-4.58386
-27.011
-7.83543
-7.52462
27.2339
-19.6735
-12.4468
76.3077
-45.4709
-133.037
-162
-27.4451
289.195
-137.273
-150.067
-30.634
398.058
433.961
436.952
438.103
292.532
416.303
430.626
436.273
434.32
228.812
418.573
429.073
434.018
453.578
323.546
418.384
432.397
441.293
442.189
228.46
414.816
427.624
434.504
430.944
261.451
408.43
427.713
432.084
374.254
260.416
385.134
432.291
431.836
373.811
300.357
291.054
433.185
435.134
-169.1
-38.3736
66.603
-44.5709
-121.318
-197.483
-17.3248
28.0005
-4.97295
-87.5042
-10.4043
15.3738
19.1739
-22.1045
-18.0201
-5.39309
9.12496
10.4037
-9.20117
-8.67073
-3.95688
6.33381
-3.59804
-4.27229
-2.75463
-3.81729
-8.44951
-18.4995
-8.1087
-3.57664
0.988697
-9.02566
-19.1937
-14.0618
-6.1602
9.86814
-11.3404
-35.6277
-31.9991
-10.3804
36.609
-34.2356
-85.9263
-78.0676
-18.7908
131.541
-67.8919
-146.927
-157.01
-35.9071
334.603
439.374
440.13
-38.603
393.554
434.422
436.254
430.375
264.351
405.624
430.392
434.643
447.312
252.325
407.679
429.932
438.84
359.385
166.601
402.638
429.671
433.452
441.904
263.417
384.847
433.476
432.226
403.9
290.094
337.998
435.148
435.671
340.855
-6.64094
92.8263
-110.105
-180.099
-163.361
-20.188
12.6577
-17.1587
-48.0677
-41.3618
-14.3105
5.32095
-6.89965
-32.4054
-27.5044
-7.13212
3.89781
-8.73044
-19.0068
-12.2506
-5.40111
1.98282
-6.53135
-18.179
-6.00854
-2.80206
-11.7846
-7.73034
-11.4306
-7.98256
-4.21613
-3.70815
-8.05151
-13.1632
-10.9963
-5.22335
2.65518
-7.17804
-23.2331
-17.9784
-7.01752
17.6205
-10.1656
-38.6382
-42.9221
-13.9832
52.7852
-32.4123
-108.983
-132.022
-20.9831
121.52
-54.2314
-99.6212
-164.494
-52.4036
282.444
436.031
-113.625
-152.71
-33.5144
352.464
435.762
438.176
393.362
361.542
436.012
438.872
402.331
317.917
350.766
435.541
437.159
422.777
281.916
436.391
-158.974
-23.1074
96.1696
-186.273
-14.5704
35.3732
-34.5021
-90.8707
-80.5464
-13.2815
4.55935
-9.07289
-28.3486
-22.3302
-7.41706
-0.862406
-8.6145
-17.5443
-12.747
-4.89269
-2.53146
-6.99916
-13.167
-10.411
-4.68687
-5.88202
-6.34029
-10.978
-7.51231
-3.70413
-7.7484
-7.20412
-10.4779
-8.56352
-3.913
-2.21563
-6.74611
-15.2258
-11.2806
-4.7864
5.54302
-6.81317
-24.0157
-21.2458
-7.2086
22.7326
0.128829
-47.0154
-33.9093
-11.0752
37.9618
-21.4839
-77.772
-101.744
-15.7674
53.3343
-58.2584
-133.347
-126.129
-16.3581
72.4753
-115.193
-142.82
-123.591
-24.5344
81.8693
-123.645
-166.214
-21.6878
71.3658
-112.536
-158.645
-121.4
-11.6115
49.5028
-59.7915
-136.933
-111.396
-13.9917
30.721
-14.5017
-83.5614
-102.312
-10.1982
14.295
-8.15632
-54.5066
-29.5263
-7.31561
2.25724
-7.87627
-23.482
-18.8287
-5.28492
-2.86416
-7.78328
-14.8878
-11.9884
-5.09676
-6.12921
-6.90255
-11.1584
-9.54011
-4.60919
-5.27015
-7.57027
-12.9945
-8.78913
-4.07935
1.14043
-5.65241
-20.1297
-11.6441
-5.03298
4.90277
-6.28427
-27.518
-12.0588
-6.27903
4.73625
-9.34624
-25.6392
-23.1285
-9.62138
6.54783
-14.4806
-35.7257
-28.2286
-10.7182
20.5313
-18.209
-46.8078
-42.6948
-11.2963
26.4079
-23.3167
-53.3983
-10.7798
7.64067
-20.5694
-50.5399
-25.9193
-9.67363
3.90931
-11.3255
-28.9947
-23.8739
-9.57466
5.805
-8.93035
-28.3852
-26.6055
-6.52446
2.7565
-4.18537
-29.5317
-17.2819
-4.73288
-1.63909
-6.36918
-20.987
-11.0635
-4.10267
-6.16942
-7.60741
-12.8421
-9.24546
-4.55127
-7.00045
-9.92065
-7.81597
-4.42851
-3.34173
-2.09823
-3.21968
-3.57744
-7.89021
-14.6408
-10.0768
-4.94408
-1.00697
-6.81524
-16.2004
-14.5412
-6.4014
-1.25418
-8.25991
-19.5366
-14.592
-5.19567
2.70808
-8.06491
-22.8867
-18.883
-5.18185
6.38407
-9.83701
-20.2201
-4.84991
-1.07531
-12.4893
-24.6443
-12.9232
-4.8929
-0.130334
-8.8166
-17.2025
-13.0398
-5.06766
-3.53644
-9.16128
-16.7584
-13.4112
-5.75919
-5.1349
-9.17137
-15.9102
-10.4034
-4.60276
-4.07717
-1.3848
-22.959
-12.4487
-3.37797
-14.161
-6.47509
-3.59607
-11.1129
-7.34642
-11.07
-7.57574
-4.01937
-7.46774
-7.36842
-10.6715
-9.38161
-4.75797
-5.69542
-7.12962
-13.1953
-10.6352
-4.8128
-3.95118
-7.94529
-15.3909
-10.444
-4.74107
-0.697013
-9.8795
-11.582
-4.6417
-4.60543
-10.867
-16.0747
-10.2274
-4.63129
-7.50017
-9.7439
-13.0107
-10.463
-4.6827
-8.82648
-9.01096
-12.3381
-10.3046
-5.04042
-10.9268
-8.62093
-12.1666
-8.66415
-4.39355
-12.5386
-7.15467
-12.1152
-8.55602
-4.26089
-9.81717
-9.9719
-5.81417
-3.20562
-12.9281
-9.19471
-14.4588
-8.8521
-4.26267
-8.50058
-4.64161
-10.7847
-11.4095
-9.2043
-8.16323
-4.94119
-4.07667
-0.32947
-7.42673
0.179206
-11.4795
-11.0806
-19.5472
-11.949
-9.32391
-20.0461
-10.2292
-8.03882
-4.80478
-10.5053
-3.15485
-3.98771
-0.345635
-2.83303
-0.335821
-6.96411
10.5456
-1.6195
-6.52333
-2.8335
-10.325
-10.8295
-7.66087
-22.4795
-2.84686
-6.14169
-3.91429
-2.5798
-0.309566
-3.38745
-0.382926
-2.34669
-3.36067
-9.60069
-10.1863
-7.59675
-6.17269
-4.05168
-3.48122
-0.381752
-7.45304
-7.73184
-10.9756
-11.4041
-9.33684
-8.25777
-5.08935
-4.28706
-0.269885
-13.6393
-7.51334
-8.81785
-7.1367
-7.7331
-10.758
-7.53267
-9.58566
-11.1597
-9.3104
-10.698
-9.96898
-8.25334
-5.19285
-8.9895
-6.03834
-4.39337
-0.30548
-4.60062
-0.798278
-7.98611
-6.84866
-5.77566
-6.16922
-7.25861
-9.50257
-6.92967
-10.1679
-10.5887
-10.2864
-11.8337
-11.1803
-9.36844
-6.39796
-10.436
-6.89795
-4.82503
-0.856198
-5.16852
-0.996596
-10.8124
-6.03107
-5.42419
-5.62195
-4.14046
-4.72938
-6.42381
-10.6015
-6.69987
-9.40043
-6.60932
-10.6867
-9.81066
-11.5523
-9.96442
-12.5769
-11.8871
-14.2503
-13.3262
-5.77026
-7.94771
-5.31226
-10.1111
-7.50029
-10.8081
-7.77747
-3.99559
-0.645817
-4.4337
-1.73568
-4.54431
-1.78651
-5.73555
-3.31676
0.466451
-2.70264
-3.50281
0.319452
1.3984
-11.726
-7.85444
-19.902
-7.08431
-11.7775
-12.6362
-23.1941
-10.2861
-20.3099
-11.5157
-13.9736
-12.4306
-24.2149
-14.4109
-5.24641
-5.81322
-3.92761
-9.12702
-7.2671
-6.43882
-4.24001
-0.720721
-3.05744
-0.658407
-4.7187
-2.00313
-3.46022
-1.57004
5.58799
-6.20196
-1.48314
2.6817
11.3574
1.18249
0.392218
-3.07916
-10.0102
-2.21645
-2.74468
-11.3906
-10.8424
-8.32582
-16.5399
-12.4995
-11.5418
-2.94648
-6.02115
-4.30219
-20.653
-5.2449
-8.93561
-5.87926
-0.513979
-3.35724
-0.677098
-3.97071
-1.58516
-4.43026
-1.98284
-2.44954
-2.41992
0.541271
-0.932242
-0.010641
-1.31179
-9.52348
-2.72264
-6.68588
-4.39192
-9.36982
-4.17705
-7.26716
-8.65994
-7.34499
-7.00646
-12.5496
-11.6644
-9.70299
-9.29418
-4.49107
-6.28068
-4.44464
-8.14426
-5.95578
-8.39269
-6.442
-0.667356
-3.90788
-0.398506
-4.26012
-1.84053
-4.38542
-1.90989
0.256274
-1.00735
-0.572346
-0.79547
-6.22978
-3.01642
-5.50507
-1.89007
-5.52008
-6.7477
-8.22584
-8.73188
-7.04568
-7.9078
-4.51121
-7.73677
-6.00178
-7.46934
-5.48344
-0.378827
-3.93498
-1.71967
-4.2871
-0.864146
-0.858819
-0.758892
-2.2062
-0.406348
-1.73222
-5.25326
-0.861442
-4.88749
-6.74487
-7.41528
-6.41607
-6.42838
-7.00922
-5.08054
-5.62556
-4.24445
-4.0498
-0.797765
-3.46703
-0.683803
-2.78309
-0.275712
-0.733448
-5.72704
-6.45236
-6.24119
-5.6375
-3.84402
-3.38918
-0.354138
-8.17513
11.9841
-5.51771
-3.81355
-3.09335
-0.554765
-11.98
-7.39592
-6.37012
-2.02089
-5.84873
-5.65585
-7.68095
-11.4417
-8.07312
-8.60634
-13.7667
-12.0445
-10.1935
-14.1194
-15.5413
-13.5506
-8.1235
-5.31257
-3.08995
-4.71681
-8.72991
-5.90444
-4.00876
-0.637046
-3.51904
-0.653894
-3.88906
-1.58679
-7.2535
-6.73381
-6.46417
-5.27647
-5.37797
-3.95872
-5.07302
-10.7459
-7.85782
-9.90346
-8.25269
-12.4717
-7.93497
-11.8908
-10.3434
-11.8328
-11.7918
-14.6269
-13.842
-14.7124
-14.3793
-5.84864
-9.47501
-7.4382
-10.3424
-7.52554
-11.8137
-8.69403
-0.765167
-4.22197
-1.73378
-4.92355
-2.12899
-5.2888
-2.18509
-13.1
-12.4538
-24.0205
-6.8514
-15.7869
-4.71931
-33.1981
-15.2069
-25.3509
-15.5903
-20.4397
-19.6379
-34.4499
-24.0215
-2.57773
-12.7186
-6.7385
-1.10678
-17.7005
-18.1404
-13.9499
-13.3154
-27.0845
-20.4929
-20.2749
0.924282
0.127753
0.171337
6.02167
3.1966
5.01262
3.57327
0.432634
5.11944
3.79577
7.58476
7.06722
-5.7481
-2.16264
-8.24431
0.0716721
-15.0362
-6.84998
-10.6613
-9.63565
-14.8619
-7.392
-4.01546
-6.62249
-4.65316
-2.60803
-3.60017
-0.675123
-3.49822
-1.57809
-2.47276
-0.600072
8.13413
10.0974
0.753857
-16.8601
9.93377
-2.69242
-17.008
-7.18763
-4.32765
-3.64825
-4.71493
-1.09681
-2.22167
-0.808154
-1.24292
-0.376464
-0.874206
-0.31546
-12.463
-10.8949
-11.5481
-13.6669
-14.1993
-11.2083
-9.39076
-5.62919
-4.25895
-0.745903
-6.64598
-2.24658
-10.7885
-10.2658
-6.62231
-7.55072
17.5755
-11.9385
-14.5349
-11.807
-20.0201
-36.6552
-15.2949
-13.0808
-20.3064
-13.9497
-1.36566
-4.46594
-8.83084
-6.22231
-8.63064
-6.29584
-3.30173
-0.62223
-3.81602
-1.55545
-4.01168
-1.67374
-7.22614
-17.1788
-11.2689
-23.2894
-2.50873
-29.6923
-18.1213
-14.7541
-23.2289
-14.0184
-28.6244
-21.4757
-20.4122
-4.80896
-35.7571
-12.936
-31.9163
-6.18605
-68.039
-27.6031
-36.938
-27.2125
-41.7337
-43.2012
-63.6314
-57.5347
-1.02412
-21.0656
2.06998
-0.347513
-40.6232
-30.6104
-24.2825
-25.7157
-66.2779
-46.82
-48.7662
-11.6756
-0.908353
-16.0795
2.70353
-20.7565
16.9456
-9.36895
-11.8771
-16.1554
-7.05221
-23.1118
-19.1634
-11.7049
-11.8122
11.1204
4.70362
10.4318
14.2991
15.6581
11.9097
11.8534
9.64585
-1.2661
13.4366
-4.67925
8.63148
1.94646
-7.56546
-4.15362
-4.07751
-9.40493
-10.2092
-3.71786
-5.07558
-1.79264
-1.80996
-1.42777
-6.91643
-3.83486
-3.83806
-3.02792
-0.8153
-1.23535
-0.421226
-3.09241
-1.40332
-2.73115
-1.33164
10.2072
10.6701
10.3768
9.69734
-0.715908
8.96967
2.19914
9.23058
4.10293
-2.94581
-0.638134
-3.05662
2.77627
-0.741704
-1.41809
-3.10397
-2.45288
-0.648868
-1.84197
-0.422543
-2.34005
-0.593051
-1.65522
-0.407705
-14.9236
-11.7706
-11.5884
-12.6126
-12.9758
-10.875
-9.40977
-6.05221
-4.52474
-0.70553
-11.5215
-10.8648
-13.1083
-11.5718
-10.0402
-10.5117
-11.8241
-13.0447
-11.7504
-13.0207
-12.1119
-14.1529
-14.011
-12.5542
-13.2681
-11.432
-15.2005
-13.8019
-9.65679
-7.19372
-9.84472
-6.36741
-10.7526
-7.79036
-4.19977
-1.70049
-4.59839
-0.788204
-4.38243
-1.73165
-23.9694
-4.65754
-34.1313
-13.4036
-24.0044
-10.864
-40.0088
-17.769
-30.8472
-28.1845
-27.4453
-24.7539
-41.9636
-33.5075
-30.7092
-9.83761
-28.2505
-7.88197
-49.6315
-5.88679
-53.5142
-22.6238
-31.6601
-33.5099
-49.6192
-36.6487
-63.1144
-65.8343
-55.5419
-4.5442
-79.682
-88.5464
-133.234
-66.7987
-133.932
-74.1057
-74.7019
-74.2294
-152.832
-141.838
-146.882
-162.14
-6.09639
-54.9855
-18.7474
-73.4772
-140.734
-85.0438
-65.4283
-70.0332
-155.57
-162.677
-168.848
-21.7005
2.89923
-24.153
2.4534
-58.8264
66.1246
-38.7787
-28.1671
-27.3174
-76.2031
-104.886
-83.5956
-25.5805
16.2269
-7.75919
35.1611
-38.4909
16.3981
-6.13203
-19.8259
-12.9599
-14.2073
-39.1974
-57.8913
-13.2702
-21.2503
11.9183
4.8614
10.1787
15.0477
13.2717
12.2709
11.8717
4.50919
9.16776
4.92777
10.0744
4.42362
9.94642
6.35538
-2.99051
2.35289
-0.813338
-1.48915
-4.82329
1.29413
-1.78678
-3.15435
-0.879962
-2.02694
-6.30357
-4.92391
-3.83893
-3.68397
-1.29472
-1.79225
-0.535157
-3.92511
-1.83678
-2.85505
-1.37139
9.86396
10.8713
10.868
4.50503
10.0724
5.20705
-0.490466
2.37792
-1.2452
-1.89366
-2.41127
-2.32502
-0.410198
-2.2274
-0.59113
-12.1887
-14.1895
-14.236
-10.1104
-9.5672
-5.07955
-4.6689
-0.172819
-13.5922
-11.6698
-17.2418
-11.7011
-10.3187
-11.1676
-11.7722
-12.9672
-11.902
-14.031
-12.3184
-13.8514
-13.2927
-11.4052
-14.0747
-10.215
-14.5679
-13.0888
-9.85189
-6.34866
-9.37612
-5.18722
-10.0099
-7.078
-4.65935
-0.776217
-4.50337
-0.226994
-4.04573
-1.55344
-55.8235
-8.73931
-72.2592
-45.6526
-97.6018
-83.1642
-137.292
-48.0315
-79.2294
-105.149
-112.69
-114.159
-140.998
-192.462
-84.3718
-86.3165
-109.688
1.77548
-86.5651
-129.398
-112.489
-127.118
-160.574
-182.454
-131.31
-137.658
-121.28
-81.9685
-140.457
-132.367
434.978
437.255
-180.668
-157.091
-170.814
-135.273
-142.115
436.585
-75.798
-141.755
-71.3694
-130.051
-60.2245
-46.9405
-6.3019
-33.5649
-8.45565
-30.6281
-5.76593
-28.148
-1.15848
-94.5089
151.662
-117.47
337.265
430.59
350.882
426.67
-144.815
-88.7876
-133.694
436.158
437.13
433.334
436.222
-170.737
-146.415
-152.707
436.424
387.858
435.883
365.466
-72.4967
-141.968
-57.7438
418.777
-41.3457
443.006
-7.89304
-27.4296
-5.40877
-27.4288
-0.0573952
2.62903
-102.23
129.65
-120.857
350.556
426.827
341.866
424.15
-106.649
-137.948
433.204
435.553
432.616
435.754
-144.002
-161.328
-173.762
435.283
402.046
435.35
359.949
-55.9991
-154.12
-79.0985
428.343
405.873
-44.4884
-5.38618
-38.0127
-8.72947
4.02951
-27.1424
1.51459
-136.67
-68.2189
-115.038
433.217
435.933
432.075
-178.141
-139.187
-193.229
435.461
385.581
-161.041
-89.8253
-162.279
-104.087
417.053
-47.0109
-156.129
-77.561
-9.51443
-51.2468
-11.7593
-28.1392
0.264019
-43.6096
-3.08285
-84.6122
-50.1427
-87.468
-113.15
-74.8383
-91.1018
-181.995
-114.16
-158.258
-122.481
-156.552
-102.911
-147.359
43.1609
59.0226
50.1315
114.68
42.0598
84.2966
44.4012
-74.866
39.3451
-52.5214
8.8249
-63.1896
-136.484
-51.5836
-90.6665
-82.5007
-123.249
-131.681
-97.0189
-92.9804
-133.335
-150.402
-135.805
-144.354
-24.7599
14.969
-4.2864
3.22972
-33.138
10.3433
-13.0761
-63.89
-22.1275
-32.0049
-69.9277
-110.879
-38.8958
-57.9068
11.3629
14.9381
12.9957
11.3368
11.3869
6.88271
10.3137
5.74492
10.0919
4.42122
-1.03511
0.417308
-2.55844
1.95357
-0.966152
-2.8562
-4.39783
-3.70813
-1.15235
-1.82249
-1.30938
-3.14532
-1.48233
-1.76835
-0.576085
10.0334
10.9233
10.2325
3.61748
2.30798
-0.533167
-0.349266
-1.33571
-1.63041
-0.299323
-17.8317
-12.2985
-9.79088
-8.07881
-12.4738
-14.6257
-13.2761
-19.7247
-14.6018
-9.94252
-19.3152
-11.2449
-9.07181
-4.86264
-7.08807
-4.72062
-5.12721
-0.218758
-3.61528
-0.604909
-11.3502
-9.24918
-10.2263
-8.50582
-9.32746
-6.84096
-9.06142
-14.8492
-13.064
-15.7202
-13.8467
-18.5965
-14.0268
-18.4224
-11.4666
-16.6755
-14.6516
-17.9685
-14.2333
-19.2192
-16.3261
-5.70061
-11.144
-7.91361
-7.94557
-6.02197
-10.6952
-7.48372
-0.617926
-4.5178
-1.78881
-3.6063
-1.46353
-4.57353
-1.88046
-152.116
-108.516
-136.221
-123.333
-212.372
438.964
-180.143
-154.607
-195.568
-220.762
-183.821
-184.246
-136.087
-132.838
438.911
439.499
433.031
437.146
-180.411
-133.365
-136.886
439.294
-175.39
435.41
375.968
-68.7708
-130.053
-49.0457
-143.606
-35.6447
423.501
317.745
-4.17119
-21.6753
1.01181
-16.5592
1.73004
314.782
434.676
437.354
433.559
436.072
430.909
434.25
-140.25
436.551
461.53
434.2
406.061
433.382
415.75
-49.7572
425.274
407.072
314.979
419.25
345.346
1.6579
-25.2998
1.06752
317.195
19.0797
274.987
7.76163
436.593
432.555
434.354
428.148
432.926
427.311
431.545
402.674
435.867
344.134
433.063
413.293
432.279
442.258
452.041
348.723
439.496
311.38
444.774
246.751
1.12093
326.542
2.56942
244.494
2.08491
303.773
2.07113
433.708
431.813
435.275
426.611
431.053
426.119
430.866
404.06
434.586
392.254
432.283
434.352
430.653
475.196
320.132
412.186
323.508
425.758
298.518
372.153
292.78
3.05674
1.94347
296.448
294.145
5.69487
435.511
432.031
435.368
427.278
431.625
429.593
432.862
374.009
434.692
-161.795
431.139
415.839
430.548
377.404
-153.049
-67.4383
353.441
225.547
411.209
278.411
1.53415
-48.084
-0.825081
238.814
5.82245
310.98
-6.68286
435.179
-73.0971
427.596
433.225
433.987
434.194
-160.87
-131.605
432.594
549.49
433.204
411.012
-75.7441
-103.018
-104.746
404.555
319.425
395.663
-83.263
-4.45737
-74.6013
-19.9586
301.022
-13.2669
-64.8361
-21.512
-44.2746
-57.9367
431.394
434.412
-30.1698
-62.9246
-85.7139
-117.191
433.825
410.39
-73.5378
-121.969
-134.248
-143.28
-138.602
-89.8373
-139.414
-132.304
11.4849
14.9164
14.0121
3.43892
10.4097
-2.32338
-1.07806
-4.40472
-3.1598
-1.41174
-0.893552
-1.19628
-0.503749
-1.66075
-0.544433
-7.75087
-7.29349
-5.5461
-3.8523
-12.7434
-22.1289
-5.79396
-17.477
-21.2194
-9.11315
-18.2077
-14.0921
-3.9724
-4.42705
-9.84945
-5.30813
-3.32486
-0.618859
-4.14609
-0.769281
-6.1321
-3.87612
-7.61979
-3.05328
-2.72283
-0.496856
0.234779
-22.194
-13.1627
-24.4145
-5.39209
-18.0598
-5.2885
-26.7479
-11.3533
-24.007
-17.501
-18.9931
-15.5754
-28.3944
-13.7953
-5.50935
-13.5877
-6.67177
-12.0394
-6.06731
-7.14722
-8.66554
-25.5537
-16.755
-33.0506
-6.26579
-29.0425
-24.4718
-20.3983
-35.2899
-31.1748
-30.3366
-14.9912
-42.4998
-37.4047
-34.4277
-56.5157
-24.8309
-65.4969
-43.8114
-124.543
-42.0348
-67.2503
-61.8181
-61.2471
-51.4541
-134.001
-105.548
-114.726
-148.068
-182.766
-76.4752
-168.814
-146.343
-209.637
-108.373
-191.521
-160.277
-188.644
-178.91
-224.438
-166.989
-217.379
438.961
439.814
-213.643
434.382
438.519
-165.032
439.423
-171.784
-215.728
-146.625
437.823
459.157
-42.8432
-139.307
-31.9253
-102.896
-24.8995
406.35
292.84
-3.0253
-10.2123
1.17897
-14.4413
1.74733
304.901
-2.54159
436.57
417.511
437.21
371.651
436.883
387.984
-30.5531
432.978
314.968
353.22
273.36
381.922
154.507
2.348
304.514
302.019
-4.81708
287.192
-0.407728
422.997
433.614
362.168
436.924
412.142
434.328
452.108
309.739
417.931
300.406
420.879
274.479
439.804
258.653
1.38223
335.027
6.94843
294.373
-1.86539
252
-65.2752
415.07
432.348
440.386
433.029
558.499
431.949
620.179
319.004
443.846
223.362
424.099
260.059
435.478
278.183
-0.454399
303.587
4.52351
146.858
273.905
-36.4771
430.531
430.711
417.467
433.017
467.699
432.589
429.946
274.176
365.867
305.363
429.833
7.80702
437.862
196.072
268.389
1.02424
196.104
-83.8509
377.485
431.465
443.078
432.231
443.678
432.242
428.002
275.742
423.92
297.314
453.523
232.2
384.955
228.276
5.27157
334.873
-2.27489
161.192
264.734
-1.53913
413.386
433.177
409.006
431.792
209.675
429.881
409.495
290.842
417.672
400.763
147.516
431.752
286.287
-23.9655
-16.8033
273.537
-0.410012
258.123
-2.50392
434.353
-22.7903
-59.8422
431.367
430.412
430.93
433.853
420.511
-71.5247
-120.098
430.123
409.504
432.997
-83.6142
-132.514
-119.088
432.126
285.548
-121.268
-92.8036
-24.2907
-86.4452
-16.0501
312.597
-5.18183
-77.6634
-22.788
-58.0144
-21.1386
-41.7828
429.82
-16.4707
-54.6534
-126.08
-64.4764
-106.813
-116.787
-71.8616
-101.562
-135.523
-135.861
-139.567
-120.327
-102.199
-132.772
-137.794
-27.8473
9.88195
-11
0.742006
-55.2219
28.9895
-39.6875
-100.614
-38.8588
-57.6305
-65.0734
-110.988
-44.1273
-69.2084
-4.21262
13.5745
-5.07129
35.8108
-33.3092
19.0141
-29.3824
-10.1371
-14.9657
-38.1243
-58.1495
-27.881
-4.97392
14.2827
-3.87632
13.1364
-23.441
13.8449
-8.46678
-12.2304
-5.83505
-5.32482
-21.6483
-22.3474
-12.0627
-9.86804
16.4639
16.3645
15.9119
8.10258
11.2706
-5.56358
11.9646
-5.19561
9.49596
-1.90046
-4.3698
-8.36927
-8.28645
-4.33217
-3.97185
-0.905205
-5.61397
-1.38628
-1.6973
-1.33721
-1.05318
-2.43598
-1.19917
-1.38055
-0.464905
11.0035
9.3115
-1.47737
-2.88432
-3.20805
-1.96196
-1.49336
-1.45118
-0.367171
-5.82172
-5.70374
-7.42591
-6.62575
-6.54036
-8.89052
-12.9165
-7.43696
-10.4427
-8.15606
-11.2757
-14.8384
-13.1062
-11.0106
-9.30505
-13.796
-12.8478
-8.64784
-6.04719
-8.43106
-5.34829
-9.7336
-7.04681
-3.9675
-1.67385
-4.62452
-0.204348
-4.47844
-1.85057
-17.3113
-5.48685
-21.9134
-7.36605
-12.5266
-7.82136
-15.2137
-16.2309
-23.3734
-17.7044
-16.1543
-15.8361
-20.3774
-19.3164
-25.6213
-7.03265
-20.0213
-11.2842
-29.795
-19.1268
-27.0384
-26.7678
-39.1001
-36.177
-45.2545
-141.963
-14.3203
-53.7125
-53.7045
-151.905
-148.178
-116.92
-61.2138
-59.6767
-176.711
-151.329
-38.181
232.834
-140.873
115.192
-55.1752
313.871
433.062
-159.212
-144.497
-198.979
-77.9573
-155.234
436.971
439.795
-182.184
-206.361
-165.884
-188.619
-168.025
439.28
-42.6888
-116.309
-28.7121
-148.46
-58.5993
-20.7374
-3.01337
-15.8529
-0.420992
-15.3182
-3.03951
-6.08866
2.02887
-205.286
435.9
437.489
437.03
439.082
433.952
436.621
-147.346
437.165
403.097
438.296
420.98
435.721
420.793
-19.902
406.03
290.741
430.243
-6.49369
427.166
215.241
3.02152
292.81
1.95573
-0.704683
3.44803
270.266
1.29467
558.522
435.493
427.505
435.756
358.151
435.317
364.078
268.277
415.613
254.414
416.315
276.75
444.005
14.2833
1.47546
319.246
308.521
4.49322
228.911
-114.773
384.651
437.148
419.404
435.461
440.586
429.536
492.167
203.424
439.366
265.244
438.031
136.677
402.03
167.012
0.252364
356.611
-20.346
208.483
326.656
583.865
430.963
593.918
427.037
437.786
421.551
373.628
224.166
432.611
210.675
340.343
165.212
327.002
269.11
-20.4977
231.875
-33.5943
224.755
271.203
534.018
417.187
413.548
416.978
410.891
415.257
412.336
414.715
429.233
422.316
429.712
418.945
421.842
419.646
422.608
472.287
431.542
492.068
420.712
374.345
421.95
349.715
178.107
451.839
70.5568
329.573
267.779
275.754
238.88
162.678
268.605
496.599
238.933
765.346
454.053
433.718
212.073
425.065
394.486
429.376
432.607
211.009
395.24
195.138
264.563
185.572
441.561
236.861
373.933
-2.74316
211.073
723.447
266.277
392.244
428.958
410.71
431.099
550.961
429.401
403.231
182.311
429.214
327.042
439.031
233.535
426.74
211.312
-30.4723
284.358
-1.11068
315.355
235.299
-2.59604
430.478
432.803
433.793
425.782
429.433
431.592
432.799
440.542
432.971
428.949
444.196
431.824
356.513
302.35
-87.0958
424.257
235.814
342.466
296.076
-7.62125
-73.156
-25.0327
260.909
-25.4999
298.096
-25.8192
422.856
186.454
29.3763
337.062
420.758
200.609
-38.0165
434.1
-32.2943
-55.8395
433.62
434.499
-45.9589
-47.422
-117.161
-72.6434
-106.818
433.122
324.747
-52.8852
-119.894
-93.0038
-120.217
-131.482
388.552
300.336
-131.372
-122.194
-26.1431
-85.9145
-30.0935
-27.0681
-80.3945
-29.104
-61.1926
52.6998
-27.1013
-45.4234
23.0302
-40.8279
-111.9
-101.153
-62.1456
-137.731
-54.8065
-119.919
18.8654
-20.9928
25.004
-27.1274
13.4028
-6.84141
-22.0267
-25.5543
-41.6307
-83.9628
-21.8062
-31.9129
-11.612
10.808
-5.7427
11.6851
-0.922605
10.1499
0.599339
-18.5203
-9.05697
-9.96868
-12.8103
-16.9781
-7.83201
-11.4704
13.7856
8.12184
10.9399
14.8151
12.9819
9.68563
9.69023
-0.698216
8.33407
-0.645872
8.44985
1.71034
8.17789
2.37888
-6.88107
-3.05553
-3.81327
-4.00644
-6.41476
-0.184987
-3.31044
-4.11714
-2.53451
-2.27667
-6.76805
-5.55763
-3.33995
-3.28165
-1.85425
-1.9865
-0.588248
-4.42309
-1.97027
-2.78532
-0.691515
10.3291
6.74738
9.1798
-0.622498
8.44312
2.00442
-2.86852
0.667798
-2.72037
-2.00959
-2.75739
-3.14724
-0.446467
-2.84285
-0.413985
-9.50563
-10.3501
-9.05405
-8.38722
-5.65232
-4.76415
-0.219857
-7.41087
-5.96388
-6.29025
-13.9361
-7.24593
-5.57087
-6.03471
-10.1607
-7.31882
-10.3687
-7.19781
-9.58064
-7.01002
-9.97744
-9.3727
-13.6819
-12.8581
-10.6342
-9.88293
-13.5094
-12.8816
-5.48523
-10.7125
-7.94417
-8.64294
-6.13142
-11.0049
-8.22482
-0.224867
-4.80495
-1.94203
-4.5513
-0.73463
-4.90307
-1.96664
-158.08
437.609
439.558
-81.1131
-156.526
439.433
439.207
-164.35
439.096
-180.626
-150.748
438.675
431.497
-59.2758
-21.511
-123.443
-61.7865
435.431
-36.5791
-4.3093
-9.19628
2.28922
-30.4056
-6.79753
-25.2209
-0.0796092
439.177