/*--------------------------------*- C++ -*----------------------------------*\
| =========                 |                                                 |
| \\      /  F ield         | OpenFOAM: The Open Source CFD Toolbox           |
|  \\    /   O peration     | Version:  4.0                                   |
|   \\  /    A nd           | Web:      www.OpenFOAM.org                      |
|    \\/     M anipulation  |                                                 |
\*---------------------------------------------------------------------------*/
FoamFile
{
    version     2.0;
    format      ascii;
    class       volScalarField;
    location    "89";
    object      p;
}
// * * * * * * * * * * * * * * * * * * * * * * * * * * * * * * * * * * * * * //

dimensions      [0 2 -2 0 0 0 0];

internalField   nonuniform List<scalar> 
146404
(
-7.78583
-3.71756
-10.1321
-6.10753
-12.4428
-7.82064
-3.88891
-1.98195
-6.46476
-21.6097
-2.27527
-6.20982
-2.92756
-10.2014
-6.20809
-3.35651
-6.56725
-5.84051
-3.93406
-9.62281
-7.7174
-11.3828
-8.57338
-4.29357
-5.23039
-7.44953
-11.7555
-10.5093
-4.7983
-0.933812
-7.56142
-18.7482
-14.0878
-4.52555
-0.0032839
-6.61687
-15.8449
-11.3801
-4.51723
5.52838
-0.926876
-21.1091
-4.20525
4.75903
-4.72463
-15.148
-11.4057
-4.83215
3.15451
-2.93021
-9.77871
-9.24483
-4.78393
2.13297
-1.4063
-7.76952
-7.55997
-3.90788
0.350516
-0.527373
-6.52015
-5.31395
-3.00534
-3.56237
-8.63091
-3.18691
-2.23084
-8.19134
-17.72
-12.2713
-5.72078
3.15548
-8.46534
-25.13
-19.8461
-7.83866
6.40644
-11.62
-33.0395
-26.4757
-8.76702
8.91516
-7.19677
-26.2555
-20.7955
-10.1614
16.3172
-6.17634
-36.745
-9.95872
13.9786
-7.10875
-26.8127
-25.2322
-11.2471
17.614
-4.92257
-25.7389
-22.8612
-11.4582
11.7205
-0.230724
-15.5039
-15.4733
-7.41457
9.92218
-2.05801
-12.2223
-7.31439
-4.3086
11.7918
-8.06289
-7.76428
-1.25477
9.50727
-1.97215
-1.29115
-0.946118
-8.94498
-11.8634
-15.8539
-10.4591
-4.06457
-1.99509
-11.1801
-23.7235
-12.6816
-5.4787
7.36009
-1.14076
-29.6425
-12.8874
-10.1491
14.5651
-12.0634
-35.8656
-32.3071
-12.2801
25.5235
-30.1997
-56.8703
-59.1016
-12.5236
38.983
-32.1988
-74.1903
-51.694
-12.759
51.128
4.99248
-94.8365
-12.762
40.559
-22.3308
-76.5552
-58.2145
-16.9605
31.905
-16.9764
-56.7899
-56.7377
-20.7514
28.7688
-1.53329
-33.1149
-36.6226
-15.6079
24.7
4.90528
-26.4855
-11.0538
-8.64907
17.8553
9.96326
-8.31301
-7.99474
-4.67623
12.2237
8.84146
-0.317393
-3.05643
-2.41841
9.66156
3.4538
-0.144143
-1.43239
-10.8324
-11.8898
-14.3148
-10.5203
-4.47755
-4.48306
-13.334
-25.6125
-15.5142
-5.18508
1.66004
-15.0674
-33.443
-24.6872
-8.77112
24.7709
-13.4143
-57.0617
-27.6124
-11.9932
59.2865
-20.8874
-96.0895
-117.359
-19.7535
104.047
-80.5886
-162.524
-144.8
-29.2475
120.385
-91.1008
-162.329
-149.183
-34.3292
152.426
-69.4737
-143.299
-24.834
122.006
-97.3776
-158.967
-158.781
-42.7008
98.4789
-75.0753
-135.433
-176.114
-56.6053
67.9335
-1.66067
-90.523
-142.602
-41.9485
45.8109
24.3271
-40.9571
-58.5248
-22.4035
27.6008
11.2644
-15.7107
-20.6546
-10.4615
19.0753
9.58195
-3.89239
-7.9619
-4.22131
12.4387
10.6212
2.06713
-2.98993
-2.44664
-13.5596
-11.8725
-14.7077
-9.07003
-4.11616
-5.72429
-14.1828
-19.302
-14.7652
-5.2329
-0.905931
-15.4672
-38.6173
-24.5975
-7.85654
12.6353
-29.5341
-88.7236
-47.5199
-12.1
59.0922
-112.478
-176.236
-130.104
-16.1349
143.016
-95.0138
-148.1
-176.324
-25.3666
312.34
436.502
-127.879
-21.0997
383.643
434.873
436.082
411.074
387.028
431.889
435.539
429.386
305.928
373.357
431.294
434.926
422.802
306.877
430.424
-147.264
-45.2375
185.13
-121.828
-66.9928
82.7608
-12.4842
-72.6316
-134.608
-44.7148
39.0878
8.86045
-40.526
-55.9955
-20.3754
25.9909
16.5337
-10.9005
-19.2688
-7.89307
18.4235
10.0482
-1.74984
-5.51172
-4.2339
10.7614
9.96359
1.21269
-0.677463
-1.46467
-5.05952
-11.0263
-21.4778
-7.44846
-3.11067
-2.04883
-14.0431
-25.8697
-15.0101
-5.24255
6.1476
-18.5577
-44.2006
-29.2423
-9.04809
37.4852
-74.8368
-126.886
-66.2825
-14.1515
125.544
-145.706
-215.266
-133.127
-17.8078
374.702
437.898
438.817
-14.6193
413.603
431.289
434.949
406.215
304.35
414.948
427.843
432.444
438.297
331.735
413.752
426.438
432.651
425.494
283.827
410.196
426.268
431.085
416.964
332.091
392.222
426.784
431.986
399.781
294.587
350.979
432.865
433.549
424.43
-54.0779
185.155
-24.7498
-69.7689
-143.568
-74.8259
66.4743
2.45564
-68.9782
-117.986
-36.4332
37.5209
17.82
-21.5081
-28.0283
-13.5234
23.3813
14.23
-8.94319
-9.69154
-4.92389
16.4972
11.6579
-5.95107
0.238426
-1.79854
-3.73891
-8.74148
-18.0528
-10.4332
-4.75442
3.92597
-3.59058
-27.7297
-13.7612
-7.2167
25.0192
-38.0065
-11.3235
83.8905
-83.0891
-169.296
-117.2
-14.5607
304.198
-210.745
-118.785
-7.5981
414.465
432.105
436.817
392.023
274.448
417.795
428.469
435.968
379.133
266.038
415.933
424.826
434.801
431.832
329.373
414.144
422.18
430.841
432.268
211.588
413.869
423.438
432.784
455.116
316.281
410.016
424.553
432.416
352.104
296.841
389.003
427.517
428.535
430.291
312.477
309.44
430.344
433.281
-120.192
-61.2554
106.834
4.00257
-68.4164
-123.918
-45.8165
49.5809
92.1746
-169.364
-18.2596
26.1421
17.0919
-17.7076
-12.5646
-6.20364
15.4274
7.91421
-5.80712
-4.76756
-3.67968
9.20444
-1.62487
-1.72063
-1.63915
-7.37651
-10.7415
-8.50651
-4.69409
-1.53535
-8.02042
-19.6595
-13.3651
-4.65272
5.68587
-12.2547
-38.1297
-25.5802
-8.21216
29.799
-30.2375
-72.6231
-51.5375
-12.0201
99.4694
-65.6663
-185.821
-119.704
-26.5628
381.663
437.489
438.2
438.637
-1.90847
417.678
430.826
435.504
388.111
260.305
417.591
426.474
434.279
458.682
167.342
415.162
421.505
425.769
289.776
230.874
408.834
417.662
415.248
338.074
258.756
411.382
419.108
421.075
289.627
225.541
412.693
422.949
431.332
440.257
177.742
400.676
424.148
428.862
413.043
257.259
352.15
431.722
434.141
385.552
311.612
140.073
-30.2742
-80.117
-151.121
-69.7333
39.4119
12.4021
-46.0155
-54.8743
-19.5497
23.1432
7.73818
-12.4262
-18.1258
-8.47506
15.6992
9.43136
-2.76998
-8.81566
-5.06014
7.84379
8.80948
1.27202
-2.46328
-2.71945
-13.8309
-7.09928
-10.4713
-8.56399
-4.57787
-1.18699
-7.66159
-19.2185
-13.5244
-4.80563
6.47238
-12.4552
-38.1603
-26.5313
-8.70423
31.4156
-32.2731
-75.0632
-55.6286
-11.9773
116.931
-77.6121
-176.7
-122.717
-28.5909
386.198
438.355
437.891
421.772
418.244
431.476
436.373
441.93
332.756
418.3
426.678
442.804
450.55
203.905
413.02
421.209
419.612
331.162
277.967
409.19
416.724
405.878
338.995
267.704
407.078
419.014
413.99
334.21
263.264
413.661
423.326
429.378
455.682
211.788
403.395
424.725
429.81
442.672
262.297
356.407
431.089
432.659
416.254
315.462
148.201
-38.713
-99.5486
-151.16
-58.3547
34.6766
2.35263
-43.9614
-50.4738
-18.6269
22.8369
7.79194
-14.6557
-19.0318
-8.76199
15.004
9.10512
-3.29043
-9.62524
-5.18787
7.27089
8.29301
0.725953
-3.2813
-3.22859
-6.9347
-10.2419
-7.89927
-4.62168
-2.93789
-6.7967
-15.4042
-11.7575
-4.50739
6.2059
-6.64133
-26.8492
-22.5374
-8.90775
34.0792
-13.7783
-66.6066
-62.2328
-12.1858
127.204
-52.1981
-145.562
-152.726
-36.5384
375.976
437.456
438.382
414.053
-18.2329
416.299
432.249
436.164
427.539
278.66
419.414
428.956
439.081
438.854
210.042
417.394
423.74
428.047
321.022
232.079
414.339
420.675
419.642
330.73
269.828
415.593
421.772
425.305
328.133
259.995
412.953
425.918
434.331
442.473
144.017
399.657
427.67
431.044
352.563
265.462
338.787
434.85
434.799
423.332
318.122
112.397
-52.8459
-100.698
-152.173
-30.4505
41.8489
12.2769
-46.9064
-66.447
-15.072
22.2441
11.2062
-13.2841
-18.7695
-6.03527
12.2015
7.38914
-4.45162
-7.54632
-4.68891
5.7933
7.50607
0.381106
-3.28765
-2.9412
-0.868245
-7.01228
-16.9399
-8.17113
-3.81425
7.69285
-4.61634
-26.9135
-7.76765
-7.4294
26.8507
-19.185
-12.2521
75.456
-46.436
-135.976
-160.394
-26.4965
288.797
-138.576
-150.736
-29.5878
397.97
433.903
436.885
437.852
291.887
416.289
430.634
436.214
434.19
228.443
418.561
429.049
433.991
453.382
323.642
418.389
432.61
440.928
442.088
229.25
414.813
427.648
434.481
430.919
262.126
408.424
427.711
432.108
374.479
261.027
385.101
432.314
431.874
373.997
300.998
291.199
433.168
435.204
-169.87
-34.3512
66.4915
-45.0868
-120.135
-208.358
-16.7237
27.9357
-4.75369
-84.5018
-10.2896
15.4607
19.2983
-21.8364
-17.799
-5.35593
9.31326
10.6183
-8.87845
-8.47135
-3.88726
6.61672
-3.27602
-4.0056
-2.62978
-4.03087
-8.65884
-18.6207
-8.13681
-3.56846
0.699196
-9.30669
-19.3334
-14.056
-6.10793
9.59126
-11.9617
-35.6536
-31.8092
-10.1706
36.775
-34.8647
-87.1297
-76.9265
-18.1449
130.521
-68.6084
-147.21
-157.896
-34.7215
334.077
439.302
440.061
-36.747
393.387
434.382
436.211
430.23
264.289
405.603
430.345
434.617
447.269
252.981
407.644
429.926
438.833
359.459
167.403
402.63
429.666
433.466
441.983
263.832
384.741
433.477
432.243
404.058
290.387
337.813
435.151
435.721
341.252
-6.20542
93.0251
-108.891
-183.778
-165.098
-19.4251
12.1102
-17.6489
-47.8747
-41.2359
-13.929
5.14129
-7.32632
-32.4618
-27.5659
-7.12952
3.89201
-8.77621
-19.0623
-12.2455
-5.35117
2.0721
-6.43995
-18.1639
-6.0063
-2.78782
-12.0225
-7.9483
-11.577
-8.04408
-4.22098
-4.016
-8.31921
-13.3271
-11.0302
-5.19771
2.32671
-7.62199
-23.37
-17.8908
-6.82067
17.3709
-10.6533
-38.9246
-42.5345
-13.5994
51.8242
-33.413
-109.11
-128.673
-20.4432
120.902
-58.1325
-101.139
-166.371
-51.2862
282.183
435.845
-114.811
-153.364
-31.7908
352.499
435.641
438.132
393.432
361.439
435.963
438.868
402.481
318.527
350.696
435.519
437.175
422.926
281.387
436.302
-158.3
-21.8505
95.5421
-188.53
-14.5296
34.582
-35.2719
-90.73
-79.8976
-12.9862
4.28051
-8.99624
-28.4794
-22.2229
-7.28865
-0.989688
-8.70557
-17.6408
-12.7567
-4.8731
-2.56487
-7.07276
-13.2448
-10.4383
-4.68243
-5.84712
-6.33777
-11.0007
-7.5176
-3.69633
-8.04833
-7.46489
-10.6434
-8.61671
-3.91592
-2.52332
-7.08481
-15.3707
-11.2748
-4.7449
5.25931
-7.16317
-24.1595
-21.164
-7.18644
22.3981
-0.375329
-47.1814
-33.4979
-10.9087
37.6431
-21.7038
-78.7809
-99.4728
-15.5088
53.3445
-58.6702
-135.546
-124.831
-15.9956
72.0818
-116.271
-145.091
-121.971
-23.9838
81.4094
-123.112
-168.32
-21.0504
71.7125
-113.781
-160.372
-120.951
-11.0763
48.9964
-59.6808
-136.76
-109.831
-13.7212
30.4443
-14.5115
-83.8014
-100.128
-10.2388
14.1253
-8.58434
-54.7738
-29.1725
-7.26961
2.17248
-7.95326
-23.5428
-18.7701
-5.26926
-2.94338
-7.89791
-14.9524
-11.9938
-5.09822
-6.19045
-6.975
-11.2224
-9.57149
-4.621
-5.53066
-7.83214
-13.1435
-8.84805
-4.07909
0.916204
-5.93582
-20.2803
-11.6948
-5.01714
4.67875
-6.41593
-27.5981
-12.0791
-6.27496
4.50737
-9.41881
-25.7578
-23.2007
-9.47776
6.47705
-14.8049
-36.0828
-28.3682
-10.4929
20.6363
-18.308
-47.3405
-43.2694
-11.1159
26.3145
-23.5153
-53.1161
-10.6372
7.40796
-20.8297
-50.9121
-26.1235
-9.50822
3.74994
-11.1299
-29.0233
-23.7694
-9.4494
5.68371
-9.05403
-28.3891
-26.4864
-6.50083
2.66925
-4.24741
-29.5165
-17.2133
-4.7141
-1.70685
-6.46618
-21.0149
-11.0465
-4.10777
-6.23832
-7.68157
-12.8893
-9.26002
-4.56721
-7.06971
-9.97086
-7.83854
-4.44458
-3.51098
-2.17357
-3.24518
-3.73288
-8.01077
-14.7351
-10.1214
-4.94717
-1.14213
-6.95654
-16.3499
-14.5567
-6.37802
-1.40293
-8.19805
-19.7156
-14.5584
-5.14809
2.52184
-8.09916
-23.0786
-18.9435
-5.1713
6.23916
-9.91533
-20.3399
-4.82872
-1.22281
-12.6192
-24.7962
-12.9231
-4.88239
-0.248068
-8.86425
-17.2179
-12.9721
-5.02594
-3.60832
-9.20492
-16.7834
-13.3848
-5.73775
-5.19351
-9.20021
-15.9183
-10.3932
-4.59695
-4.10093
-1.36786
-22.9473
-12.4552
-3.39027
-14.1866
-6.48707
-3.60508
-11.2628
-7.4694
-11.1669
-7.63906
-4.05173
-7.59004
-7.47684
-10.7755
-9.44158
-4.7889
-5.77129
-7.20838
-13.2945
-10.7098
-4.83846
-4.04427
-8.00951
-15.4862
-10.5035
-4.75561
-0.769003
-9.93638
-11.6405
-4.65496
-4.71134
-10.9415
-16.1108
-10.2852
-4.65038
-7.58871
-9.80435
-13.0361
-10.4712
-4.683
-8.87247
-9.05269
-12.3635
-10.303
-5.04968
-10.9591
-8.64724
-12.1745
-8.66569
-4.40084
-12.6266
-7.22332
-12.1929
-8.61743
-4.29692
-9.88788
-10.0301
-5.86218
-3.23487
-13.0173
-9.25642
-14.4832
-8.87863
-4.27997
-8.51712
-4.66042
-10.6149
-11.2418
-9.03473
-7.99869
-4.83474
-3.98065
-0.312954
-7.11287
0.469282
-11.3045
-10.7943
-19.3402
-11.7748
-9.1535
-19.8428
-10.02
-7.8727
-4.69691
-10.2568
-3.0509
-3.89346
-0.325146
-2.74316
-0.330107
-6.68085
10.8653
-1.25083
-6.15028
-2.45878
-9.954
-10.4635
-7.38032
-22.0723
-2.73437
-5.88209
-3.76328
-2.47662
-0.306067
-3.25788
-0.375003
-1.96649
-2.92883
-9.22574
-9.81859
-7.31079
-5.90576
-3.89611
-3.34757
-0.372838
-7.32968
-7.61125
-10.8621
-11.2881
-9.2291
-8.15463
-5.02708
-4.23519
-0.2747
-13.4999
-7.39009
-8.6733
-7.01006
-7.61307
-10.6453
-7.41964
-9.48143
-11.0434
-9.20155
-10.583
-9.84899
-8.1485
-5.12789
-8.87275
-5.9613
-4.33908
-0.300849
-4.54235
-0.786687
-7.83271
-6.72515
-5.60154
-6.02846
-7.1482
-9.39874
-6.80662
-10.0406
-10.4754
-10.1593
-11.6946
-11.0209
-9.24496
-6.31366
-10.2767
-6.78514
-4.76151
-0.84532
-5.08486
-0.980965
-10.6069
-5.8368
-5.23338
-5.44799
-3.94494
-4.54586
-6.23044
-10.4322
-6.57728
-9.26698
-6.47737
-10.543
-9.64531
-11.3886
-9.79668
-12.4298
-11.7276
-14.0918
-13.1624
-5.66384
-7.7851
-5.20049
-9.94521
-7.36875
-10.6359
-7.63888
-3.90789
-0.639153
-4.35333
-1.70645
-4.46076
-1.75626
-5.53576
-3.05025
0.741499
-2.48137
-3.31815
0.564664
1.63536
-11.5532
-7.56871
-19.6953
-6.90745
-11.6305
-12.3499
-23.0144
-10.115
-20.1038
-11.3262
-13.8175
-12.2689
-24.0289
-14.2273
-5.13343
-5.62495
-3.82091
-8.96747
-7.13994
-6.28078
-4.12988
-0.712393
-2.97582
-0.646922
-4.63327
-1.97171
-3.38729
-1.5444
5.91659
-5.85051
-1.1189
2.96786
11.639
1.51204
0.747801
-2.71038
-9.64098
-1.885
-2.37804
-11.012
-10.4808
-8.04187
-16.3415
-12.1368
-11.2498
-2.82927
-5.77155
-4.15015
-20.4427
-5.12142
-8.72137
-5.72298
-0.504735
-3.23989
-0.66181
-3.88794
-1.55612
-4.3305
-1.94405
-2.06468
-2.00215
0.942386
-0.520003
0.406547
-0.883042
-9.14672
-2.30648
-6.29563
-4.00479
-8.98798
-3.77177
-6.87916
-8.3651
-6.95799
-6.68268
-12.1856
-11.3543
-9.34219
-8.97223
-4.32552
-5.96881
-4.2492
-7.90164
-5.77518
-8.12309
-6.23519
-0.649954
-3.7331
-0.38661
-4.16271
-1.80409
-4.27128
-1.86589
0.693867
-0.600012
-0.141654
-0.379504
-5.84063
-2.61315
-5.11735
-1.46172
-5.09894
-6.42085
-7.84826
-8.3871
-6.62397
-7.52639
-4.3111
-7.42988
-5.76435
-7.10394
-5.2136
-0.367309
-3.78836
-1.66527
-4.07828
-0.828357
-0.446869
-0.332812
-1.81771
0.0344054
-1.30192
-4.81598
-0.409668
-4.43433
-6.31407
-7.01772
-5.95421
-6.00872
-6.63248
-4.80514
-5.23517
-3.95146
-3.83377
-0.762534
-3.23365
-0.645811
-2.39799
0.170363
-0.275936
-5.25648
-5.98463
-5.82385
-5.24179
-3.55667
-3.13891
-0.330974
-8.04377
12.1036
-5.44365
-3.771
-3.06111
-0.548802
-11.844
-7.27278
-6.24288
-1.92384
-5.71711
-5.54175
-7.56157
-11.3296
-8.11307
-8.50435
-13.6533
-11.9281
-10.0828
-14.0167
-15.4136
-13.431
-8.02396
-5.24914
-3.00338
-4.67072
-8.63239
-5.83984
-3.9618
-0.628164
-3.48713
-0.649734
-3.84928
-1.5702
-7.13304
-6.59246
-6.3432
-5.15051
-5.26563
-3.83117
-4.97004
-10.6376
-7.75799
-9.80406
-8.16039
-12.374
-7.85715
-11.8036
-10.2301
-11.7186
-11.6711
-14.5086
-13.7208
-14.5829
-14.2406
-5.78012
-9.36221
-7.35665
-10.2296
-7.45534
-11.6828
-8.59679
-0.753477
-4.17472
-1.71704
-4.87206
-2.10837
-5.23158
-2.16224
-12.9932
-12.2552
-23.8482
-6.69301
-15.7415
-4.52472
-33.0768
-15.0368
-25.1742
-15.4023
-20.3239
-19.4749
-34.2886
-23.7389
-2.20632
-12.3382
-6.46808
-0.698406
-17.3108
-17.93
-13.5847
-13.0073
-26.7701
-20.1111
-19.9354
1.3344
0.513153
0.604299
6.35091
3.59937
5.34771
3.95477
0.869915
5.45235
4.19946
7.93769
7.49354
-5.26831
-1.65593
-7.70889
0.656582
-14.4466
-6.42694
-10.1599
-9.17862
-14.299
-6.99038
-3.72239
-6.21298
-4.32547
-2.26261
-3.28146
-0.640616
-3.29182
-1.50411
-2.22272
-0.550758
8.46628
10.5678
1.53801
-16.2694
10.0713
-2.39221
-16.4321
-6.82537
-3.96908
-3.11992
-4.39845
-0.800376
-1.70075
-0.467049
-0.999908
-0.339916
-0.564197
-0.27378
-12.3222
-10.7673
-11.4263
-13.5659
-14.1104
-11.1502
-9.34268
-5.60909
-4.24665
-0.742434
-6.51348
-2.11778
-10.6408
-10.1342
-6.47566
-7.40946
17.8008
-11.8118
-14.4238
-11.6521
-19.8999
-36.5816
-15.2069
-13.0158
-20.1989
-13.8789
-1.30392
-4.42823
-8.78871
-6.19358
-8.57763
-6.26382
-3.28144
-0.614151
-3.8013
-1.55077
-4
-1.67024
-7.13779
-17.056
-11.0974
-23.1669
-2.49832
-29.519
-17.9864
-14.6227
-23.1201
-13.9414
-28.4238
-21.2914
-20.4978
-4.62906
-35.6494
-13.0088
-32.0968
-6.15963
-68.1203
-27.406
-36.7733
-26.8929
-41.7004
-42.81
-63.6257
-56.4594
-0.640187
-20.674
1.98925
-0.0119439
-40.1217
-30.258
-23.9107
-25.3754
-64.8124
-46.4568
-48.3393
-11.0828
-0.0897197
-15.4743
3.3068
-20.0124
16.8796
-9.06744
-11.3805
-15.5646
-6.68287
-22.3715
-18.5237
-11.3102
-11.1023
11.6875
4.91373
10.6119
14.4719
15.811
12.0955
12.02
9.78691
-0.997569
13.4666
-4.39818
8.79153
2.16779
-7.20854
-3.78729
-3.57739
-8.9919
-9.60778
-3.35363
-4.63795
-1.45665
-1.31795
-1.07635
-6.33171
-3.44081
-3.3819
-2.69164
-0.737831
-0.940041
-0.384842
-2.85288
-1.29767
-2.48938
-1.23033
10.3878
10.8501
10.5533
9.88178
-0.420471
9.15404
2.46342
9.42332
4.3718
-2.46257
-0.318963
-2.64612
3.07734
-0.386518
-1.08077
-2.68965
-2.12702
-0.286206
-1.56264
-0.401108
-2.08579
-0.537854
-1.39245
-0.369588
-14.8101
-11.6594
-11.4802
-12.5271
-12.899
-10.8255
-9.3709
-6.04098
-4.5207
-0.702607
-11.3777
-10.739
-12.9951
-11.4584
-9.90717
-10.3888
-11.711
-12.947
-11.6421
-12.9314
-12.002
-14.0545
-13.9311
-12.4977
-13.1907
-11.3805
-15.124
-13.7437
-9.61589
-7.17089
-9.80439
-6.35351
-10.7043
-7.76302
-4.1879
-1.69496
-4.59329
-0.783906
-4.36818
-1.72427
-23.8362
-4.68996
-33.9353
-13.2121
-23.905
-10.5806
-39.8314
-17.6874
-30.6404
-27.989
-27.3629
-24.7101
-41.8511
-33.3923
-30.5137
-9.82859
-27.9897
-7.54325
-49.481
-6.15159
-53.232
-22.4252
-31.2859
-32.9925
-49.483
-36.5164
-62.1122
-64.7187
-56.2174
-4.49741
-79.9421
-90.4306
-137.239
-69.4095
-140.22
-72.8536
-74.7599
-72.6808
-155.259
-140.205
-153.046
-163.303
-5.79492
-54.4217
-22.6239
-72.6363
-139.319
-82.4936
-65.0611
-69.6225
-160.606
-162.623
-170.84
-21.0744
3.4878
-23.398
2.57257
-58.485
65.4847
-37.6953
-27.3571
-26.2625
-74.6238
-101.669
-81.9229
-24.7824
16.139
-7.52312
34.5357
-38.4607
16.3069
-5.95917
-18.9999
-12.5278
-13.4713
-38.6641
-56.2678
-12.876
-20.4786
12.0795
5.01818
10.3525
15.198
13.4145
12.4132
12.0154
4.73392
9.3607
5.17634
10.2231
4.61031
10.1115
6.54955
-2.62816
2.655
-0.474467
-1.24343
-4.45336
1.50441
-1.4872
-2.85129
-0.532991
-1.74406
-5.91669
-4.58141
-3.51839
-3.38711
-1.21536
-1.54334
-0.501188
-3.70172
-1.71873
-2.66307
-1.29121
10.0439
10.9987
11.0189
4.76252
10.2381
5.41636
-0.153596
2.60383
-0.933239
-1.62149
-2.09734
-2.04943
-0.387179
-2.01009
-0.545759
-12.0846
-14.1115
-14.1628
-10.0669
-9.52813
-5.0674
-4.66344
-0.171828
-13.484
-11.5594
-17.1323
-11.5953
-10.2025
-11.0628
-11.6671
-12.8811
-11.7967
-13.9533
-12.221
-13.7706
-13.2193
-11.3566
-14.0023
-10.1705
-14.5042
-13.0402
-9.81283
-6.33632
-9.33545
-5.17311
-9.96825
-7.05973
-4.65665
-0.773383
-4.4981
-0.223966
-4.03578
-1.55012
-55.5264
-9.2747
-71.7014
-44.8887
-96.9529
-82.5206
-132.751
-48.0841
-78.3186
-103.656
-113.357
-117.138
-135.55
-197.337
-83.9759
-88.6409
-110.965
3.84973
-89.7686
-129.566
-111.316
-126.524
-157.442
-187.368
-130.928
-135.825
-124.096
-82.8541
-143.635
-132.972
435.074
437.29
-178.634
-158.85
-167.462
-135.646
-140.121
436.611
-74.7248
-138.386
-68.3837
-127.367
-56.9342
-44.859
-5.99227
-31.8263
-8.28543
-29.5672
-5.77335
-27.0769
-1.09272
-94.2219
151.636
-119.465
336.923
430.642
350.604
426.716
-147.605
-92.7001
-136.771
436.228
437.181
433.434
436.268
-167.462
-149.519
-155.954
436.481
387.953
435.919
365.511
-68.5249
-142.81
-53.8655
418.878
-39.2468
443.121
-7.75788
-25.1503
-5.11247
-26.0726
-0.0011086
2.54485
-100.602
129.908
-119.145
350.481
426.872
342.02
424.327
-105.487
-137.2
433.272
435.598
432.778
435.754
-150.268
-161.657
-176.953
435.335
402.147
435.317
360.031
-52.1679
-154.75
-76.7606
428.453
405.969
-44.2215
-4.86491
-35.9406
-8.09005
3.87415
-26.3915
1.16108
-135.005
-68.8472
-114.259
433.27
435.921
432.133
-180.594
-137.82
-191.821
435.443
385.733
-158.732
-88.3945
-161.704
-102.544
417.086
-46.8461
-154.015
-75.821
-8.92827
-49.9198
-11.211
-28.0219
0.079463
-42.0874
-3.07362
-85.0118
-50.6663
-88.1027
-113.014
-75.5272
-92.6622
-179.412
-113.881
-155.242
-121.762
-153.751
-102.656
-139.201
43.3724
58.9364
49.8392
114.513
41.5654
83.9516
44.623
-75.402
38.8115
-52.1539
8.93962
-64.3577
-131.312
-50.9599
-89.319
-84.8781
-122.383
-130.173
-95.5457
-92.2006
-123.786
-146.022
-132.935
-140.825
-24.6494
14.7731
-4.20165
3.24259
-33.2666
10.0445
-13.2662
-62.5731
-21.2825
-30.7784
-70.443
-109.949
-38.6135
-56.8776
11.4989
15.0275
13.1124
11.4223
11.5043
7.05473
10.4616
5.89168
10.2307
4.60573
-0.780141
0.586442
-2.29567
2.17074
-0.707891
-2.59883
-4.07946
-3.43147
-0.884327
-1.57694
-1.23255
-2.9376
-1.39239
-1.54694
-0.539048
10.1183
11.0514
10.3733
3.82123
2.52197
-0.272256
-0.084239
-1.09419
-1.39413
-0.276832
-17.7243
-12.1918
-9.69545
-7.97484
-12.3713
-14.5461
-13.1561
-19.6333
-14.528
-9.89933
-19.2336
-11.2063
-9.03363
-4.852
-7.05614
-4.69992
-5.12031
-0.209113
-3.6041
-0.598467
-11.2443
-9.13829
-10.1134
-8.41163
-9.22591
-6.72008
-8.94846
-14.7667
-12.9642
-15.6283
-13.746
-18.5037
-13.9302
-18.3282
-11.4181
-16.6134
-14.6011
-17.8944
-14.1811
-19.149
-16.2863
-5.68428
-11.0837
-7.88579
-7.90125
-6.00285
-10.6353
-7.44988
-0.614414
-4.50441
-1.78427
-3.59431
-1.46291
-4.55232
-1.87083
-150.048
-109.251
-133.11
-121.133
-210.874
439.049
-182.341
-151.489
-198.484
-223.82
-186.264
-184.34
-133.421
-132.752
438.976
439.537
433.064
437.175
-182.916
-132.787
-134.506
439.328
-175.347
435.438
376.045
-66.078
-127.436
-46.9751
-141.666
-34.9188
423.575
317.811
-4.38302
-20.5321
0.768302
-15.9954
1.34752
314.97
434.728
437.492
433.581
436.088
430.936
434.282
-137.7
436.652
461.658
434.243
406.137
433.424
415.865
-48.207
425.367
407.147
315.137
419.419
345.751
1.52957
-24.8148
0.915514
317.308
19.0918
275.334
7.81576
436.637
432.599
434.41
428.19
432.967
427.362
431.596
402.775
435.907
344.191
433.103
413.369
432.314
442.303
452.18
349.151
439.589
311.806
444.817
247.209
0.945827
326.978
2.32806
244.895
2.15873
304.149
2.08128
433.76
431.865
435.325
426.664
431.094
426.18
430.908
404.173
434.6
392.431
432.323
434.406
430.675
475.25
320.638
412.305
323.939
425.832
298.93
372.294
293.259
2.81009
1.95044
296.822
294.541
5.79817
435.515
432.086
435.451
427.321
431.665
429.63
432.901
374.169
434.776
-159.758
431.164
415.904
430.615
377.553
-151.479
-65.5812
353.544
225.995
411.296
278.725
1.50537
-46.5211
-1.10248
239.277
6.0369
311.181
-7.17838
435.24
-75.8243
427.634
433.284
434.026
434.294
-157.807
-123.503
432.661
549.558
433.336
411.142
-73.3508
-97.6783
-100.918
404.617
319.549
395.792
-74.1108
-4.29933
-70.6321
-16.9704
301.172
-13.2582
-55.0676
-18.4728
-45.2789
-58.4274
431.473
434.497
-31.4282
-64.3683
-86.7426
-116.985
433.932
410.546
-74.6769
-122.001
-129.7
-140.041
-134.493
-81.3033
-136.63
-128.505
11.6019
15.0401
14.122
3.62383
10.4927
-2.1591
-0.812355
-4.17248
-2.8495
-1.17162
-0.592641
-0.956025
-0.471708
-1.45905
-0.501015
-7.66204
-7.17955
-5.48211
-3.79717
-12.6148
-22.0332
-5.76624
-17.446
-21.1309
-9.07929
-18.1784
-14.0584
-3.95247
-4.41106
-9.82015
-5.293
-3.31811
-0.61555
-4.13792
-0.763893
-6.02075
-3.76721
-7.5368
-3.00696
-2.66042
-0.442118
0.309435
-22.1006
-13.0461
-24.3151
-5.37854
-18.0251
-5.3158
-26.6844
-11.2971
-23.9212
-17.448
-18.958
-15.5381
-28.3274
-13.7156
-5.50492
-13.5294
-6.66158
-12.0052
-6.04478
-7.08756
-8.62479
-25.4641
-16.6503
-33.0194
-6.3447
-28.9743
-24.0248
-20.3414
-35.2949
-31.1147
-30.2479
-14.9018
-42.3248
-37.3786
-34.2998
-56.5293
-24.3816
-65.3769
-43.6985
-124.483
-42.0283
-67.4268
-61.9554
-61.1235
-51.2358
-134.025
-104.59
-115.959
-146.918
-184.109
-76.0799
-168.157
-145.629
-208.23
-108.52
-194.4
-161.724
-188.892
-177.593
-225.468
-167.348
-217.376
439.018
439.841
-212.924
434.405
438.549
-165.658
439.445
-170.845
-216.762
-146.448
437.849
459.158
-41.8825
-137.055
-32.0149
-101.566
-24.333
406.394
292.893
-3.04775
-10.0858
1.03422
-14.2481
1.99725
304.897
-2.49121
436.577
417.582
437.243
371.657
436.931
388.085
-30.0449
433.004
315.14
353.327
273.476
382.008
154.612
1.91422
304.737
302.071
-4.84139
287.306
-0.414444
423.053
433.643
362.297
436.974
412.215
434.365
452.118
309.977
418.074
300.7
420.829
274.567
439.807
258.768
1.42317
335.117
7.01861
294.716
-1.94634
254.474
-68.4248
415.061
432.379
440.424
433.08
558.5
431.975
620.279
319.367
443.878
223.733
424.184
259.474
435.425
277.538
-0.411177
303.965
4.55112
145.958
273.005
-32.6572
430.575
430.746
417.521
433.033
467.796
432.617
429.665
274.57
366.05
305.883
429.849
6.73579
437.975
196.401
268.788
1.08005
195.819
-82.5751
377.561
431.519
443.193
432.272
443.686
432.302
427.701
276.173
423.979
297.625
453.357
232.511
385.039
228.698
5.38967
335.071
-2.40976
161.671
265.122
-1.79149
413.493
433.306
409.113
431.864
209.94
429.981
409.522
291.041
417.76
400.833
147.603
431.78
286.302
-24.1344
-13.422
273.752
-0.244342
258.097
-2.63831
434.426
-23.9512
-61.6842
431.46
430.523
431.001
433.953
420.596
-73.4129
-120.867
430.222
409.571
433.093
-74.7382
-132.768
-115.168
432.178
285.513
-122.68
-88.6446
-19.8207
-80.5508
-13.4011
312.682
-4.78139
-71.4152
-15.0279
-59.8762
-22.8316
-44.6762
429.922
-17.1631
-56.5681
-127.184
-66.8675
-109.924
-118.276
-75.221
-105.947
-133.901
-139.404
-140.604
-121.274
-99.5814
-135.62
-137.832
-29.2619
9.79197
-11.2756
-0.16211
-56.3493
28.6943
-40.0324
-102.924
-38.0722
-55.8394
-66.9582
-114.191
-44.0465
-67.984
-4.27817
13.5924
-5.00213
35.4843
-33.5664
19.568
-28.7455
-9.90184
-14.5336
-37.9674
-56.3128
-27.537
-4.88091
14.3065
-3.73048
13.7459
-23.0064
14.2693
-8.04829
-11.8394
-5.59954
-4.99204
-21.2792
-22.0115
-11.6655
-9.59721
16.578
16.6015
16.2536
8.38986
11.6636
-5.38328
12.3979
-4.7774
9.91076
-1.48574
-4.05154
-7.98173
-8.02111
-3.92247
-3.66693
-0.70623
-5.38545
-1.2031
-1.42382
-1.12978
-0.981729
-2.25445
-1.11929
-1.1924
-0.429765
11.3862
9.72731
-1.05995
-2.47604
-2.8944
-1.66551
-1.28635
-1.24916
-0.344049
-5.74218
-5.64843
-7.35692
-6.54567
-6.46317
-8.85172
-12.8874
-7.37522
-10.4197
-8.10516
-11.2396
-14.8108
-13.0752
-10.9897
-9.29413
-13.7691
-12.8172
-8.6217
-6.02936
-8.42237
-5.34118
-9.70651
-7.02711
-3.95357
-1.66474
-4.61857
-0.197346
-4.46414
-1.84299
-17.2738
-5.4816
-21.8676
-7.31201
-12.4877
-7.79297
-15.1699
-16.189
-23.3017
-17.623
-16.128
-15.7882
-20.3102
-19.2319
-25.5573
-7.04192
-19.9572
-11.3441
-29.5921
-19.015
-26.8891
-26.5888
-38.7649
-35.6969
-45.1788
-143.033
-14.563
-53.3336
-54.172
-155.069
-148.548
-115.785
-60.7278
-58.7063
-175.725
-146.432
-37.9716
233.078
-140.699
115.174
-53.805
313.521
433.068
-160.109
-144.17
-199.606
-77.3557
-158.571
437.02
439.805
-182.985
-206.997
-165.172
-187.089
-162.475
439.294
-43.3859
-114.76
-28.1823
-147.929
-60.2163
-21.9601
-3.17087
-15.4197
-0.37674
-15.7447
-3.07685
-6.79573
1.89386
-205.196
435.942
437.528
437.069
439.121
434
436.673
-146.64
437.197
403.121
438.323
420.997
435.771
420.818
-19.5737
406.043
290.772
430.204
-7.6719
427.169
215.486
2.96717
292.886
1.99722
-1.84642
3.33789
270.417
1.1923
558.444
435.55
427.586
435.817
358.223
435.35
364.061
268.398
415.682
254.338
416.343
276.918
444.054
16.0522
1.64239
319.335
308.681
4.39025
229.192
-115.25
384.817
437.17
419.456
435.49
440.585
429.587
492.167
203.622
439.346
265.612
438.179
137.578
402.338
167.266
0.0151379
356.55
-16.9084
208.986
326.387
583.734
430.991
594.057
427.09
437.796
421.591
373.567
224.043
432.624
210.613
340.701
165.169
326.849
269.055
-16.9503
232.043
-27.5161
224.952
271.17
532.604
417.165
413.516
416.994
410.848
415.213
412.337
414.637
429.257
422.367
429.747
418.935
421.876
419.625
422.649
472.352
431.579
492.057
420.743
374.385
421.99
349.843
177.071
451.952
70.8269
329.489
267.717
275.755
239.504
163.524
268.467
495.725
239.338
763.593
454.18
433.751
211.92
425.113
394.833
429.413
432.577
211.219
395.376
194.506
264.813
185.271
441.701
236.339
374.249
-2.55723
211.196
721.758
265.774
392.258
429.077
410.691
431.152
550.843
429.488
403.361
182.343
429.192
327.119
439.146
233.088
426.838
211.346
-29.7232
284.505
-1.84531
315.09
235.222
-2.54784
430.576
432.88
433.887
425.86
429.523
431.688
432.868
440.503
433.063
429.041
444.335
431.905
356.91
302.429
-82.3677
424.49
235.796
342.857
296.251
-7.80575
-66.5582
-16.4909
260.975
-25.0063
298.197
-12.1972
422.845
186.645
28.9641
337.148
420.876
200.62
-39.6863
434.193
-33.3197
-58.2394
433.705
434.561
-46.5648
-49.4766
-118.805
-76.1912
-109.466
433.199
324.974
-55.4053
-121.459
-89.245
-121.713
-128.647
388.771
300.512
-131.418
-118.82
-17.8198
-80.3849
-25.632
-18.6991
-74.4471
-25.3936
-64.4149
52.1962
-27.4773
-47.7154
22.8382
-42.2616
-114.812
-98.8469
-65.5882
-139.689
-56.8216
-119.409
19.2307
-20.6691
25.0436
-27.8574
13.746
-6.67496
-21.7042
-25.1629
-42.1489
-81.5666
-21.5611
-31.2715
-11.2903
11.2105
-5.36854
12.0091
-0.671169
10.4573
0.92423
-18.2057
-8.68588
-9.71424
-12.5422
-16.7819
-7.50572
-11.2003
14.1183
8.43301
11.3228
15.1597
13.3273
10.0741
10.0853
-0.312893
8.7447
-0.244948
8.81646
2.05892
8.57617
2.76038
-6.59359
-2.6582
-3.49864
-3.66642
-6.12219
0.188076
-2.99176
-3.90576
-2.24773
-2.06158
-6.49837
-5.34347
-3.04165
-3.07185
-1.79467
-1.80357
-0.56025
-4.26558
-1.9141
-2.61139
-0.669982
10.7085
7.14375
9.58662
-0.211337
8.84712
2.39228
-2.54801
1.05278
-2.38731
-1.79722
-2.44169
-2.92987
-0.419026
-2.64623
-0.400432
-9.4949
-10.3367
-9.03919
-8.37279
-5.63852
-4.7548
-0.218975
-7.33921
-5.86778
-6.18907
-13.8529
-7.17842
-5.47482
-5.93558
-10.1392
-7.27552
-10.3243
-7.13837
-9.56571
-6.96577
-9.93937
-9.36251
-13.6606
-12.8386
-10.6199
-9.86631
-13.4845
-12.8556
-5.47517
-10.6804
-7.92111
-8.62664
-6.11586
-10.9647
-8.19758
-0.217021
-4.79267
-1.93574
-4.54367
-0.731922
-4.8898
-1.96038
-161.753
437.64
439.574
-82.6324
-155.216
439.405
439.217
-161.138
439.116
-178.254
-148.191
438.685
431.475
-59.7839
-22.4895
-121.336
-61.4388
435.261
-35.5493
-4.32992
-9.86927
2.17665
-29.6787
-6.39816
-24.3646
-0.372861
439.196