/*--------------------------------*- C++ -*----------------------------------*\
| =========                 |                                                 |
| \\      /  F ield         | OpenFOAM: The Open Source CFD Toolbox           |
|  \\    /   O peration     | Version:  4.0                                   |
|   \\  /    A nd           | Web:      www.OpenFOAM.org                      |
|    \\/     M anipulation  |                                                 |
\*---------------------------------------------------------------------------*/
FoamFile
{
    version     2.0;
    format      ascii;
    class       volScalarField;
    location    "85";
    object      p;
}
// * * * * * * * * * * * * * * * * * * * * * * * * * * * * * * * * * * * * * //

dimensions      [0 2 -2 0 0 0 0];

internalField   nonuniform List<scalar> 
146404
(
-7.83216
-3.71222
-10.4066
-6.36497
-12.6086
-7.88764
-3.90836
-2.29789
-6.51127
-21.6124
-2.31249
-6.55886
-3.26829
-10.4607
-6.35785
-3.3997
-6.86234
-6.01503
-3.99407
-9.80916
-7.87471
-11.4421
-8.55608
-4.26672
-5.46349
-7.63765
-11.816
-10.4597
-4.76254
-1.21911
-7.85735
-18.873
-13.9664
-4.44394
-0.303305
-6.8657
-15.9873
-11.3391
-4.45755
5.2028
-1.10809
-21.1212
-4.19717
4.39577
-5.05478
-15.3601
-11.3675
-4.79466
2.71072
-3.28633
-10.0137
-9.31594
-4.78985
1.60991
-1.84257
-8.059
-7.70557
-3.9281
-0.256048
-1.0126
-6.85242
-5.54627
-3.10483
-3.70071
-8.59492
-3.1871
-2.43399
-8.33689
-17.6767
-12.1852
-5.69938
2.8477
-8.59163
-24.8606
-19.6198
-7.68459
6.01769
-11.8371
-32.9694
-26.192
-8.51482
8.53775
-7.40554
-26.3298
-20.5847
-9.89362
15.9577
-6.42867
-36.5298
-9.7715
13.5325
-7.44235
-26.9993
-25.3925
-11.0141
16.9542
-5.29335
-25.8921
-22.6655
-11.1486
11.0687
-0.724339
-15.6993
-15.5665
-7.41536
9.16638
-2.51237
-12.4772
-7.56058
-4.35042
10.777
-7.53113
-8.3678
-1.4018
8.21355
-3.04196
-1.93073
-1.21534
-9.04753
-11.9372
-15.9062
-10.4357
-4.04027
-2.11365
-11.2035
-23.7366
-12.6521
-5.38785
7.12273
-1.42591
-29.4827
-12.6913
-9.8936
14.3111
-12.0454
-35.3115
-31.9655
-12.0239
24.9055
-30.497
-55.5345
-56.7975
-11.7281
38.5409
-32.9658
-74.3111
-50.3535
-12.0411
50.799
4.20625
-91.8271
-11.9129
40.1827
-22.8634
-77.1527
-58.1356
-16.4562
31.1602
-17.3086
-56.3225
-56.2181
-20.0759
27.8141
-2.19957
-32.5242
-36.1678
-15.4568
23.5879
4.63723
-26.3208
-11.1444
-8.77061
16.5778
8.57645
-9.22461
-8.43736
-4.82253
10.9293
7.54898
-1.36107
-3.69249
-2.64847
8.35609
2.31264
-0.930186
-1.76946
-10.9338
-11.9832
-14.3888
-10.5535
-4.49795
-4.62621
-13.3975
-25.6942
-15.4742
-5.1525
1.55719
-15.1012
-33.4796
-24.5738
-8.85287
24.4771
-13.1798
-57.4342
-27.7089
-11.9995
58.344
-22.0879
-93.9642
-120.565
-19.7192
102.39
-82.8011
-163.687
-141.723
-26.9471
119.652
-92.6026
-163.958
-145.692
-31.5531
151.573
-70.6271
-149.341
-21.7738
121.871
-96.5443
-160.266
-160.181
-41.6804
97.5778
-77.2177
-132.891
-174.68
-56.1139
66.4406
-2.28324
-89.6608
-138.119
-42.9402
44.2708
22.0653
-41.8525
-57.4797
-22.5464
26.048
9.8201
-16.6828
-20.9001
-10.3549
17.6994
8.20401
-5.02734
-8.51406
-4.40228
11.1129
9.33167
0.912253
-3.63156
-2.68527
-13.654
-11.9521
-14.7743
-9.11156
-4.14668
-5.82411
-14.2373
-19.3454
-14.7857
-5.20325
-1.04828
-15.4031
-38.8636
-24.3717
-7.68949
12.5402
-29.2506
-89.4392
-46.5121
-11.4964
58.7624
-110.641
-177.647
-126.896
-15.7503
141.856
-96.1529
-144.395
-179.317
-23.1822
311.174
435.848
-125.355
-19.4112
382.882
434.267
435.438
410.411
386.279
431.234
434.851
428.641
305.492
372.687
430.68
434.145
422.016
305.978
429.628
-145.781
-44.5178
183.375
-129.047
-70.5959
80.6172
-14.8197
-76.7739
-135.98
-44.342
37.4077
7.15997
-40.6508
-54.9922
-19.4375
24.5294
14.9378
-11.9459
-19.9063
-7.78207
17.0959
8.73641
-2.81643
-6.08805
-4.32247
9.54467
8.72567
0.155076
-1.33816
-1.69161
-5.16889
-11.0786
-21.5197
-7.47018
-3.14132
-2.14041
-14.0618
-25.9138
-15.0105
-5.21121
6.07037
-18.2738
-44.4631
-29.237
-9.09377
37.4526
-75.4915
-128.658
-65.9855
-13.9956
125.995
-140.228
-219.607
-130.701
-16.906
374.106
437.273
438.236
-13.9128
412.936
430.648
434.319
405.67
304.165
414.26
427.184
431.792
437.628
331.575
413.046
425.755
431.949
424.74
283.23
409.457
425.558
430.339
416.182
331.217
391.4
426.034
431.241
398.984
293.933
349.875
432.149
432.766
423.66
-59.9521
183.094
-29.9358
-74.8922
-146.375
-74.9463
64.5565
-0.0153405
-71.8203
-118.54
-33.2514
36.0325
16.1974
-22.5327
-28.1124
-12.5395
22.1656
12.8759
-10.01
-10.1811
-4.76965
15.4251
10.3835
-6.99703
-0.31966
-1.83759
-3.89772
-8.9067
-18.122
-10.4284
-4.74816
3.75932
-3.82189
-27.6994
-13.6774
-7.23261
24.8722
-37.5483
-11.6738
83.6201
-83.1868
-169.556
-114.28
-14.7489
303.765
-210.611
-117.75
-6.65685
413.85
431.512
436.245
391.589
274.671
417.147
427.838
435.354
378.713
266.005
415.26
424.159
434.114
431.262
328.467
413.447
421.478
430.11
431.58
210.687
413.135
422.709
432.034
454.282
315.137
409.246
423.805
431.635
351.233
295.789
388.138
426.75
427.774
429.291
311.72
308.364
429.565
432.508
-123.333
-65.3641
105.265
0.178095
-73.7966
-128.832
-42.7518
48.3445
90.2156
-159.079
-17.2288
25.2095
16.396
-17.956
-12.7535
-6.07787
14.6546
7.34935
-6.16424
-4.92119
-3.62793
8.61282
-2.03253
-1.97548
-1.69902
-7.53493
-10.8417
-8.54137
-4.70158
-1.75316
-8.24321
-19.7025
-13.3171
-4.63785
5.46668
-12.5434
-37.8135
-25.4325
-8.21545
29.5224
-30.3726
-71.827
-50.7781
-11.8836
98.6031
-65.4073
-186.224
-116.814
-27.2606
381.004
437.017
437.724
438.258
-3.86843
417.073
430.247
434.963
387.77
260.805
416.949
425.855
433.689
458.16
169.598
414.449
420.83
425.125
290.197
230.702
408.073
416.919
414.456
337.062
258.084
410.693
418.394
420.287
289.035
225.225
411.927
422.184
430.543
439.364
176.313
399.881
423.382
428.074
412.192
256.108
351.27
430.995
433.332
384.963
310.713
138.899
-32.6518
-83.017
-150.885
-66.6396
38.5284
11.2858
-46.2371
-52.3682
-18.6377
22.5149
7.32105
-12.4617
-17.9226
-8.31553
15.0788
8.96556
-3.1077
-8.74397
-4.89449
7.20883
8.30301
0.929149
-2.61821
-2.72507
-14.0263
-7.2789
-10.5754
-8.59365
-4.58595
-1.43457
-7.95797
-19.2595
-13.4302
-4.76851
6.15617
-12.8535
-37.8295
-26.2198
-8.64798
30.7546
-33.0466
-74.1425
-54.4764
-11.8552
116.198
-79.7025
-173.181
-121.394
-28.626
385.65
437.802
437.414
421.368
417.635
430.908
435.863
441.691
334.692
417.647
426.066
442.199
449.868
203.873
412.166
420.539
418.962
330.424
277.514
408.052
415.844
405.076
338.337
267.039
406.644
418.472
413.181
333.485
262.399
412.889
422.557
428.574
454.786
209.836
402.602
423.933
428.986
441.881
261.132
355.591
430.354
431.887
415.342
314.41
147.278
-40.4923
-101.732
-151.373
-57.2752
34.0174
2.0309
-43.4962
-49.1663
-18.1684
22.3051
7.452
-14.7038
-18.9683
-8.69739
14.4885
8.69765
-3.55731
-9.55222
-5.07073
6.72087
7.85398
0.45418
-3.35129
-3.19733
-7.1185
-10.3405
-7.92663
-4.62079
-3.18002
-6.99418
-15.4433
-11.6985
-4.4891
5.89529
-6.86465
-26.8298
-22.2577
-8.74825
33.528
-14.4885
-65.3508
-60.5963
-12.2135
127.198
-49.5367
-150.39
-153.099
-36.2991
375.389
436.943
437.876
413.85
-17.2071
415.666
431.678
435.651
427.193
278.774
418.755
428.337
438.527
438.423
207.681
416.672
423.071
427.449
320.323
231.619
413.725
419.891
418.829
329.961
269.462
414.879
421.067
424.537
327.686
259.192
412.166
425.139
433.528
441.369
142.07
398.856
426.876
430.225
351.692
263.879
338.003
434.049
433.996
422.373
316.935
111.851
-51.3835
-102.376
-152.07
-28.8413
41.2513
11.6642
-47.2836
-65.933
-14.6387
21.7128
10.7152
-13.5155
-18.8765
-6.03561
11.6964
6.95041
-4.70051
-7.59739
-4.67179
5.27602
7.06693
0.0839151
-3.41468
-2.96265
-1.13129
-7.16805
-16.9925
-8.16537
-3.79938
7.33101
-4.79896
-26.8949
-7.71213
-7.28997
26.2998
-18.6146
-11.9065
74.5951
-47.6324
-138.672
-160.416
-24.9684
287.869
-140.725
-153.284
-27.1992
397.267
433.326
436.339
437.516
292.013
415.625
429.999
435.618
433.613
228.164
417.884
428.391
433.319
452.518
323.011
417.686
432.014
439.72
441.442
229.098
414.054
426.902
433.681
430.12
261.113
407.632
426.927
431.314
373.849
259.642
384.24
431.511
431.041
373.06
299.674
290.141
432.261
434.365
-170.319
-29.8827
65.4835
-46.3458
-118.012
-221.478
-16.1192
27.2993
-4.43437
-79.7505
-10.1789
14.9302
18.5694
-22.1044
-17.8639
-5.36129
8.80971
10.0711
-9.12836
-8.59595
-3.91091
6.12485
-3.60517
-4.13581
-2.67798
-4.34928
-8.974
-18.796
-8.18714
-3.5625
0.318666
-9.65264
-19.5166
-14.0717
-6.04174
9.04937
-12.2599
-35.7581
-31.6473
-9.88465
35.9066
-35.5163
-88.2214
-75.7267
-17.2133
129.163
-69.3726
-149.116
-157.473
-33.4951
333.122
438.724
439.482
-34.6187
392.716
433.731
435.604
429.765
264.013
404.967
429.647
433.97
446.711
252.588
406.959
429.224
438.124
358.714
167.043
401.87
428.929
432.72
441.239
263.38
383.892
432.714
431.473
403.249
289.485
336.846
434.362
434.96
340.431
-6.35754
92.0397
-107.337
-188.283
-165.02
-18.4916
11.1294
-17.9515
-48.1745
-40.9372
-13.4888
4.51709
-7.86424
-32.7788
-27.8044
-7.20672
3.33561
-9.21377
-19.4029
-12.4196
-5.34551
1.59078
-6.75838
-18.4701
-6.26325
-2.88962
-12.3579
-8.24946
-11.7824
-8.14184
-4.23068
-4.39786
-8.65101
-13.5535
-11.1075
-5.17761
1.82802
-8.00476
-23.6009
-17.8744
-6.60579
16.8258
-11.1571
-39.3427
-42.1448
-13.0608
50.9778
-34.9826
-110.023
-124.86
-19.6723
120.118
-62.8227
-104.404
-173.61
-49.4079
281.538
435.159
-117.886
-152.78
-30.5083
352.136
434.829
437.462
392.923
360.826
435.264
438.16
401.858
317.878
349.956
434.792
436.438
422.22
280.396
435.434
-157.186
-20.3858
94.4744
-189.696
-14.6762
33.6375
-36.3952
-90.8357
-78.9756
-12.7228
3.65124
-9.40544
-28.935
-22.1389
-7.17297
-1.5223
-9.16986
-17.9201
-12.8698
-4.8985
-3.07828
-7.54351
-13.5986
-10.6279
-4.73927
-6.32938
-6.77834
-11.3594
-7.76255
-3.80766
-8.42302
-7.80923
-10.9003
-8.73112
-3.93909
-2.95077
-7.48422
-15.6224
-11.3224
-4.71062
4.73862
-7.61445
-24.4448
-21.0694
-7.16026
21.8463
-1.12678
-47.507
-32.8194
-10.7161
37.2
-22.336
-81.7684
-94.3734
-15.0094
52.9389
-59.4684
-138.897
-121.671
-15.5169
72.3482
-116.785
-149.735
-119.22
-23.373
81.2059
-123.05
-169.808
-20.5705
71.2669
-114.384
-163.01
-119.48
-10.3365
47.9554
-60.3737
-137.923
-108.406
-13.4252
29.5498
-15.3384
-84.9838
-96.0044
-10.3435
13.3934
-9.46159
-55.2035
-28.906
-7.23155
1.58047
-8.45345
-23.883
-18.8298
-5.28741
-3.4613
-8.3869
-15.2703
-12.1439
-5.16084
-6.68535
-7.44707
-11.5803
-9.79075
-4.71998
-5.9289
-8.20483
-13.4009
-8.97376
-4.10139
0.507368
-6.35978
-20.545
-11.7911
-5.00483
4.26082
-6.72556
-27.863
-12.1183
-6.26232
4.07234
-9.69748
-26.1321
-23.224
-9.2111
6.03682
-14.882
-36.8441
-28.5851
-10.1558
20.2116
-18.753
-48.4162
-43.8016
-10.8259
25.9011
-23.9834
-53.0449
-10.4386
6.87658
-21.3334
-51.5724
-26.5778
-9.28485
3.22357
-11.4441
-29.3345
-23.7987
-9.25926
5.12231
-9.52649
-28.6716
-26.4466
-6.48373
2.12918
-4.67682
-29.7792
-17.2587
-4.71258
-2.21342
-6.97429
-21.3446
-11.2011
-4.1587
-6.73248
-8.15009
-13.2379
-9.46343
-4.66736
-7.53759
-10.3435
-8.07943
-4.57734
-3.88026
-2.32329
-3.29378
-4.09046
-8.31732
-14.9604
-10.2146
-4.96005
-1.49528
-7.26033
-16.6444
-14.5907
-6.33535
-1.72333
-8.39888
-20.0584
-14.4865
-5.05252
2.15135
-8.40093
-23.4814
-19.0104
-5.13537
5.85736
-10.2991
-20.5913
-4.79793
-1.64217
-12.9495
-25.1707
-12.9439
-4.86452
-0.706896
-9.23794
-17.4669
-12.9556
-4.97695
-4.0633
-9.60422
-17.0537
-13.4494
-5.72511
-5.64406
-9.58032
-16.1744
-10.5043
-4.62032
-4.56288
-1.71153
-23.1986
-12.618
-3.4568
-14.5449
-6.70671
-3.71981
-11.6041
-7.77986
-11.3932
-7.77171
-4.10755
-7.91981
-7.78208
-11.0125
-9.56126
-4.83415
-6.08919
-7.4939
-13.5225
-10.8346
-4.86805
-4.36721
-8.30917
-15.7372
-10.6233
-4.77217
-1.13613
-10.2917
-11.7906
-4.68059
-5.11933
-11.3238
-16.3562
-10.4399
-4.69361
-8.00332
-10.1904
-13.2884
-10.5873
-4.70912
-9.29403
-9.44199
-12.6401
-10.4199
-5.09372
-11.3848
-9.0399
-12.4468
-8.81305
-4.45571
-12.9536
-7.51723
-12.4305
-8.76757
-4.3573
-10.2434
-10.3606
-6.00791
-3.29229
-13.4089
-9.62209
-14.7476
-9.0297
-4.33026
-8.66617
-4.72474
-10.8063
-11.417
-9.123
-8.07302
-4.85509
-3.99281
-0.274259
-7.42069
0.21414
-11.4945
-11.0033
-19.5119
-11.9489
-9.24496
-20.0081
-10.1124
-7.94596
-4.71546
-10.3287
-3.11433
-3.91799
-0.28397
-2.79634
-0.33421
-6.99468
10.6102
-1.58768
-6.25023
-2.7912
-10.237
-10.7286
-7.55774
-22.0663
-2.79729
-6.04194
-3.82944
-2.52261
-0.313553
-3.30784
-0.374559
-2.30645
-3.2991
-9.50678
-10.0854
-7.49149
-6.06804
-3.96686
-3.39995
-0.37297
-7.49759
-7.77012
-10.9458
-11.3526
-9.22568
-8.1443
-5.00223
-4.21025
-0.288539
-13.6882
-7.56243
-8.88804
-7.20783
-7.77405
-10.7326
-7.60227
-9.60041
-11.1105
-9.20091
-10.6622
-9.85886
-8.14074
-5.10248
-8.85979
-5.93829
-4.31367
-0.295436
-4.51744
-0.771947
-8.05621
-6.93689
-5.84766
-6.26851
-7.34203
-9.52842
-7.03546
-10.196
-10.5675
-10.1693
-11.7976
-11.0347
-9.23266
-6.2868
-10.2528
-6.74843
-4.73376
-0.833765
-5.04599
-0.968751
-10.8789
-6.10105
-5.48294
-5.70375
-4.2075
-4.81296
-6.48673
-10.6233
-6.83712
-9.46707
-6.75347
-10.7448
-9.70259
-11.5574
-9.88783
-12.5479
-11.7849
-14.211
-13.2303
-5.66265
-7.84933
-5.21835
-9.93347
-7.34498
-10.6289
-7.61709
-3.91768
-0.643243
-4.31832
-1.69302
-4.4277
-1.74276
-5.80441
-3.35494
0.467921
-2.76094
-3.59911
0.265647
1.32864
-11.7508
-7.76965
-19.8649
-7.15564
-11.847
-12.5689
-23.1811
-10.208
-20.2627
-11.416
-13.9607
-12.3475
-24.1755
-14.2855
-5.15308
-5.7204
-3.88673
-8.98712
-7.1409
-6.34941
-4.16374
-0.726919
-3.02449
-0.648401
-4.60578
-1.96177
-3.3873
-1.54615
5.66616
-6.19625
-1.45989
2.64948
11.3207
1.17861
0.408169
-3.05131
-9.92967
-2.01246
-2.72198
-11.2768
-10.7378
-8.22146
-16.3849
-12.379
-11.3967
-2.88802
-5.92092
-4.21815
-20.4584
-5.1809
-8.8431
-5.78548
-0.513588
-3.28219
-0.658031
-3.90443
-1.56316
-4.34409
-1.94425
-2.41201
-2.36696
0.598593
-0.849501
0.0359483
-1.22905
-9.42847
-2.6652
-6.59898
-4.32101
-9.26388
-4.09828
-7.17691
-8.54743
-7.24536
-6.8716
-12.4116
-11.5411
-9.59722
-9.17731
-4.39464
-6.13729
-4.32052
-8.02417
-5.85291
-8.24501
-6.31068
-0.646806
-3.78913
-0.382458
-4.19996
-1.81668
-4.30311
-1.87476
0.283117
-0.993732
-0.618858
-0.826442
-6.15174
-2.98079
-5.44849
-1.87047
-5.4359
-6.61551
-8.12052
-8.60154
-6.91603
-7.73818
-4.38507
-7.56278
-5.85131
-7.26575
-5.28928
-0.365213
-3.81346
-1.66435
-4.12196
-0.825606
-0.944147
-0.795485
-2.39856
-0.476016
-1.73059
-5.16003
-0.897003
-4.81053
-6.62173
-7.23756
-6.27468
-6.25079
-6.81002
-4.89641
-5.44522
-4.07488
-3.88854
-0.762235
-3.31541
-0.648614
-2.99286
-0.347909
-0.769761
-5.62028
-6.3241
-6.07592
-5.48133
-3.68501
-3.24205
-0.332342
-8.17291
11.9879
-5.43436
-3.76035
-3.05072
-0.545887
-12.0252
-7.43912
-6.38343
-2.08505
-5.88575
-5.70966
-7.71905
-11.4161
-8.5236
-8.65285
-13.7319
-11.9832
-10.077
-13.9898
-15.4212
-13.4047
-8.00862
-5.22311
-2.97728
-4.65758
-8.5914
-5.80771
-3.93863
-0.61665
-3.47801
-0.646758
-3.81788
-1.55052
-7.31129
-6.80253
-6.54084
-5.34347
-5.44761
-4.05612
-5.17055
-10.7305
-7.92494
-9.9183
-8.31695
-12.4673
-8.0225
-11.8973
-10.2237
-11.765
-11.6649
-14.5254
-13.6909
-14.5766
-14.1791
-5.74994
-9.32287
-7.32562
-10.1659
-7.4169
-11.5905
-8.52082
-0.738602
-4.14988
-1.70504
-4.8226
-2.08421
-5.17348
-2.13614
-13.2388
-12.4772
-24.0161
-6.8942
-16.0416
-4.86234
-33.2374
-15.0845
-25.3203
-15.4504
-20.4363
-19.4997
-34.3924
-23.6872
-2.55832
-12.5973
-6.67347
-1.05144
-17.5844
-17.9454
-13.8271
-13.1234
-26.6835
-20.372
-20.0435
0.834753
-0.0669866
0.0850118
5.76736
3.08563
4.72743
3.37242
0.329605
4.77779
3.59071
7.12095
6.82781
-5.6351
-2.10124
-8.03724
0.257774
-14.7456
-6.68614
-10.4532
-9.43927
-14.589
-7.36883
-3.86374
-6.41112
-4.47238
-2.66946
-3.501
-0.655777
-3.36167
-1.53028
-2.37635
-0.570573
7.57602
9.90787
1.36178
-16.5563
8.73716
-3.53874
-16.7218
-7.28369
-5.03657
-3.77673
-4.92124
-1.05997
-2.29225
-0.781888
-1.19773
-0.379476
-0.786709
-0.235647
-12.4205
-10.8576
-11.5038
-13.6284
-14.1672
-11.1945
-9.37345
-5.63427
-4.26485
-0.740893
-6.63333
-2.20491
-10.7394
-10.2239
-6.58277
-7.49548
17.8753
-11.8792
-14.478
-11.6834
-19.9382
-36.6226
-15.2564
-13.0545
-20.2324
-13.8962
-1.30361
-4.42482
-8.81056
-6.20673
-8.58063
-6.26827
-3.28688
-0.607236
-3.80528
-1.55101
-4.00615
-1.67308
-7.31423
-17.1015
-11.0984
-23.2036
-2.80228
-29.4557
-17.9813
-14.56
-23.1541
-13.9446
-28.3091
-21.1434
-20.858
-4.97537
-35.8053
-13.2365
-32.4295
-6.67901
-68.0708
-27.3688
-36.8568
-26.8047
-41.6254
-42.5762
-63.5069
-55.5067
-1.05611
-20.9492
1.36884
-0.50292
-40.1828
-30.1307
-24.1975
-25.5152
-63.2018
-46.6748
-48.2043
-11.3364
-0.193913
-15.7435
2.98279
-20.0359
15.315
-10.2623
-11.5886
-15.8307
-7.13123
-22.37
-18.6159
-12.3818
-11.5809
11.1574
3.7796
9.3522
13.3179
14.5835
10.8859
10.7625
8.45965
-2.18283
12.0123
-5.58325
7.48276
0.936505
-7.68154
-4.84108
-4.2752
-9.99883
-10.207
-4.35602
-5.42485
-1.73154
-1.91474
-1.41361
-6.79252
-3.74135
-3.93647
-3.0936
-0.803217
-1.1817
-0.418446
-2.99305
-1.35419
-2.65486
-1.29632
9.12363
9.60172
9.27405
8.57431
-1.57827
7.86803
1.28468
8.12209
3.1782
-3.17769
-1.38878
-3.43883
1.92577
-1.22292
-1.43142
-3.34514
-2.50661
-1.0558
-2.00099
-0.391851
-2.33237
-0.581301
-1.72929
-0.372366
-14.9098
-11.7581
-11.574
-12.6055
-12.9726
-10.8836
-9.42253
-6.07811
-4.55171
-0.697422
-11.4766
-10.8321
-13.0956
-11.5567
-10.012
-10.4839
-11.7952
-13.0208
-11.7352
-13.0056
-12.0869
-14.1259
-13.9928
-12.5511
-13.2628
-11.4329
-15.1892
-13.794
-9.64639
-7.19528
-9.84993
-6.38488
-10.7204
-7.77824
-4.19885
-1.69304
-4.62232
-0.779231
-4.37612
-1.72192
-23.8573
-5.05866
-33.8318
-13.1936
-23.9467
-10.4772
-39.8344
-17.6893
-30.5092
-27.825
-27.4181
-24.7915
-41.9204
-33.4829
-30.4118
-10.0005
-27.7578
-7.35785
-49.5286
-6.72262
-52.8114
-22.2821
-30.849
-32.3592
-49.5806
-36.7326
-60.8638
-64.1928
-56.6748
-4.94303
-79.9592
-93.4287
-140.672
-72.0556
-143.583
-72.3747
-74.5882
-71.1942
-156.938
-139.628
-159.461
-166.153
-6.21927
-54.3266
-27.1727
-72.9218
-139.314
-79.7148
-65.0981
-69.2071
-159.378
-162.946
-172.908
-21.1755
3.11141
-23.3389
1.72596
-59.0714
62.906
-37.4606
-27.1618
-25.7875
-73.6645
-100.087
-81.7881
-24.7228
14.5169
-8.81331
32.0438
-40.5184
14.6175
-7.3626
-18.929
-13.5545
-13.962
-39.9964
-56.3306
-14.0085
-21.0102
10.7699
3.71903
9.03543
13.8605
12.0778
11.0888
10.6894
3.50915
8.06311
3.9646
8.89504
3.34567
8.80923
5.30295
-3.47911
1.53955
-1.34357
-2.35317
-5.27602
0.353197
-2.38803
-3.29236
-1.28976
-2.19653
-6.4795
-4.97968
-4.1594
-3.84497
-1.3139
-1.8537
-0.544715
-3.87429
-1.7877
-2.88816
-1.38643
8.72729
9.67812
9.70629
3.56435
8.93659
4.20565
-1.009
1.46268
-1.77282
-2.06174
-2.79361
-2.47474
-0.415248
-2.29401
-0.599876
-12.1662
-14.1823
-14.2331
-10.1225
-9.57958
-5.09749
-4.70163
-0.170104
-13.5831
-11.6581
-17.2267
-11.6833
-10.2985
-11.1588
-11.7621
-12.9585
-11.8786
-14.0256
-12.3048
-13.8514
-13.296
-11.4161
-14.0739
-10.2252
-14.5806
-13.1064
-9.86285
-6.37165
-9.38534
-5.20172
-9.99998
-7.09127
-4.68993
-0.771327
-4.53483
-0.221389
-4.04971
-1.55178
-55.3832
-10.2281
-70.7065
-44.3506
-96.5445
-82.3545
-128.051
-48.6361
-76.7467
-102.886
-114.416
-120.079
-131.628
-202.431
-82.8286
-91.6319
-109.718
6.11675
-94.3186
-128.401
-111.124
-126.03
-155.994
-194.277
-129.598
-134.377
-125.899
-85.0022
-145.82
-132.581
434.465
436.67
-177.514
-161.169
-163.708
-135.087
-138.624
435.977
-72.8906
-134.696
-64.4364
-125.306
-52.1128
-41.5514
-5.63948
-29.0399
-7.99627
-27.0404
-5.46932
-25.3471
-1.0153
-94.6263
150.79
-123.8
336.115
430.046
349.582
426.039
-149.217
-96.5027
-139.972
435.603
436.565
432.82
435.595
-164.331
-155.585
-161.539
435.879
387.347
435.224
364.739
-63.7593
-146.371
-48.9911
418.227
-36.3725
442.352
-7.59037
-22.3861
-4.70397
-24.95
-0.00573645
2.34352
-97.4635
129.618
-118.03
349.586
426.21
341.306
423.809
-105.622
-137.415
432.639
434.912
432.234
434.981
-157.843
-162.332
-181.731
434.651
401.407
434.514
359.35
-47.5148
-156.713
-73.8284
427.673
405.257
-41.7772
-4.3028
-33.5174
-7.2797
3.55865
-25.4807
0.584171
-135.164
-70.0941
-114.333
432.604
435.151
431.367
-181.836
-137.604
-189.381
434.657
385.054
-156.723
-87.7639
-162.022
-101.973
416.328
-46.6493
-152.673
-75.5282
-8.42344
-49.2055
-10.869
-28.1449
-0.315615
-40.7561
-2.57751
-87.1241
-52.5911
-90.2868
-113.779
-78.7148
-95.6443
-175.695
-113.911
-151.863
-121.695
-150.811
-102.509
-131.665
42.0884
57.4409
48.0028
112.687
38.7199
82.0482
43.0695
-76.904
36.4277
-53.9673
6.90365
-67.575
-126.192
-52.0726
-89.5
-89.6089
-123.829
-133.109
-95.2255
-93.1732
-117.196
-145.077
-131.838
-141.375
-26.5151
13.0544
-6.00034
1.95112
-35.4661
8.07245
-15.1847
-62.8055
-21.9944
-31.2387
-73.59
-111.493
-40.2705
-57.4595
10.1848
13.7127
11.8194
10.1655
10.2369
5.81546
9.19017
4.65446
8.97048
3.44044
-1.70106
-0.535158
-3.16499
1.09344
-1.53437
-3.08637
-4.65875
-3.86142
-1.58025
-1.94955
-1.32985
-3.11803
-1.46861
-1.78038
-0.568232
8.88157
9.79431
9.11915
2.68689
1.42509
-1.08527
-0.792133
-1.48841
-1.65231
-0.28782
-17.8183
-12.2777
-9.79784
-8.05931
-12.4531
-14.6135
-13.2022
-19.684
-14.5956
-9.95507
-19.2809
-11.2623
-9.08511
-4.88922
-7.09286
-4.71952
-5.1605
-0.191525
-3.61741
-0.598686
-11.3329
-9.23542
-10.2019
-8.51193
-9.3142
-6.81894
-9.02982
-14.8314
-13.0355
-15.688
-13.8122
-18.5569
-13.992
-18.3823
-11.4705
-16.685
-14.6781
-17.9463
-14.2293
-19.2062
-16.3615
-5.71585
-11.0835
-7.9016
-7.92131
-6.02964
-10.6303
-7.45125
-0.611083
-4.51252
-1.78488
-3.61041
-1.47511
-4.54743
-1.86569
-147.685
-111.328
-129.653
-120.072
-210.118
438.54
-184.529
-149.393
-202.483
-226.365
-188.026
-183.538
-130.712
-131.227
438.423
438.954
432.441
436.555
-187.649
-131.098
-132.178
438.742
-174.117
434.821
375.504
-63.1061
-125.077
-43.5347
-138.218
-34.1103
423.014
317.519
-4.60759
-18.8507
0.33594
-14.8829
0.89176
314.817
434.072
436.918
432.951
435.441
430.291
433.631
-135.143
436.048
461.045
433.637
405.589
432.788
415.289
-44.5335
424.734
406.596
314.943
418.902
345.697
1.22347
-24.0629
0.807585
317.029
19.0953
275.297
7.88457
435.995
431.93
433.747
427.54
432.311
426.704
430.936
402.165
435.221
343.404
432.455
412.737
431.631
441.543
451.407
348.652
438.967
311.767
444.001
246.805
0.76063
326.504
2.135
244.831
2.17058
303.814
1.89515
433.072
431.185
434.598
425.994
430.403
425.516
430.213
403.45
433.817
391.831
431.628
433.662
429.934
474.469
320.182
411.606
323.026
425.047
298.446
371.61
292.433
2.54555
1.82997
296.391
293.578
5.84696
434.736
431.327
434.724
426.613
430.942
428.889
432.15
373.539
434.054
-158.011
430.415
415.139
429.884
376.922
-149.944
-64.2967
352.81
225.194
410.602
278.147
1.42984
-45.3665
-0.772397
238.474
6.0581
310.533
-7.42838
434.49
-82.2258
426.855
432.524
433.142
433.539
-155.346
-117.665
431.913
548.742
432.606
410.436
-72.1645
-95.2042
-103.727
403.865
318.837
395.107
-78.2983
-3.26715
-73.0757
-17.2337
300.501
-13.3603
-58.7329
-17.0218
-50.5402
-62.0841
430.622
433.747
-36.3968
-69.2511
-90.4762
-119.987
433.189
409.863
-79.0376
-125.941
-131.01
-140.158
-134.576
-86.0712
-138.869
-130.344
10.358
13.9176
12.9373
2.47849
9.25327
-3.28794
-1.59666
-5.17942
-3.52773
-1.53531
-1.14702
-1.1881
-0.5003
-1.5699
-0.511778
-7.77254
-7.24938
-5.62526
-3.9508
-12.65
-22.0738
-5.93666
-17.5469
-21.169
-9.11586
-18.2539
-14.0765
-3.9916
-4.42763
-9.82968
-5.29783
-3.33012
-0.615355
-4.14007
-0.758446
-6.10142
-3.86895
-7.60537
-3.14167
-2.81797
-0.568116
0.140545
-22.1473
-13.068
-24.351
-5.56728
-18.1154
-5.57823
-26.7438
-11.315
-23.9608
-17.4853
-19.0211
-15.5528
-28.3063
-13.6672
-5.54277
-13.5275
-6.68904
-12.0183
-6.04388
-7.06413
-8.59629
-25.5064
-16.6356
-33.1401
-6.59873
-29.0147
-23.4824
-20.3676
-35.4941
-31.1625
-30.223
-14.8453
-42.2219
-37.5297
-34.0687
-56.7715
-23.8341
-65.3239
-43.7414
-124.27
-42.2033
-67.9348
-62.425
-61.1243
-51.068
-134.492
-103.524
-118.365
-145.151
-186.173
-75.7082
-167.279
-145.351
-204.999
-108.942
-198.964
-163.874
-189.294
-176.552
-225.564
-167.598
-216.373
438.461
439.251
-211.389
433.817
437.979
-165.813
438.851
-168.784
-217.204
-146.574
437.285
458.633
-40.5159
-133.287
-31.4769
-100.696
-22.9647
405.961
293.076
-2.96539
-9.65158
0.905369
-13.223
2.17504
305.022
-2.52103
435.942
417.074
436.662
371.105
436.321
387.574
-28.9679
432.425
314.995
352.958
273.653
381.474
154.643
1.41155
304.595
302.174
-4.84696
287.278
-0.323134
422.499
433.005
361.721
436.35
411.729
433.703
451.459
309.922
417.529
300.537
420.23
274.581
439.137
258.729
1.49014
334.96
7.07034
294.687
-1.67849
256.587
-89.4651
414.319
431.69
439.66
432.41
557.808
431.262
619.683
319.231
443.061
223.213
423.642
259.107
434.573
275.84
-0.433037
303.537
4.37416
145.383
271.009
-35.5564
429.828
430
416.738
432.306
467.099
431.874
428.423
274.054
365.412
305.054
429.075
4.2222
437.215
195.358
267.789
1.08681
194.505
-81.9407
376.818
430.775
442.217
431.524
442.863
431.543
426.26
275.298
423.218
297.144
452.237
231.363
384.221
227.993
5.37804
334.394
-2.49918
161.101
264.303
-0.980539
412.661
432.58
408.351
431.099
209.368
429.215
408.592
290.437
417.021
400.003
146.573
430.698
285.431
-24.4282
-14.6939
272.928
-0.159768
257.102
-2.63995
433.634
-28.9503
-67.0314
430.687
429.781
430.196
433.183
419.826
-78.4053
-125.014
429.459
408.7
432.314
-80.5571
-136.831
-116.775
431.223
284.585
-126.131
-92.5966
-20.5252
-83.6991
-13.6314
311.95
-4.87377
-75.8664
-16.899
-65.3248
-27.47
-52.3209
429.153
-20.6979
-61.1304
-130.351
-73.0125
-116.085
-121.75
-81.2636
-113.585
-134.708
-145.025
-141.144
-124.539
-102.725
-141.956
-141.736
-32.728
7.83516
-13.316
-3.71468
-58.6546
26.8339
-41.7323
-107.799
-38.6262
-55.1174
-69.6695
-120.924
-45.0642
-67.7121
-5.91496
12.185
-6.33468
33.6462
-35.2721
19.0094
-29.2181
-10.9739
-15.1448
-39.0672
-54.1483
-27.4975
-6.15566
13.0325
-4.89162
13.2151
-23.2833
13.6317
-8.45298
-12.4538
-6.60553
-5.63686
-21.5228
-22.0304
-11.9982
-9.88405
15.4381
15.7246
15.4946
7.5926
10.9976
-6.5003
11.7827
-5.20544
9.29294
-1.94136
-4.69759
-8.34223
-8.32661
-4.3135
-3.98527
-0.938714
-5.66643
-1.36589
-1.70984
-1.26484
-0.987883
-2.22718
-1.09254
-1.25399
-0.416309
10.7153
9.11647
-1.49673
-2.88291
-3.19031
-1.93526
-1.39945
-1.30701
-0.336136
-5.89443
-5.80462
-7.5162
-6.71635
-6.63067
-9.00204
-13.0082
-7.53045
-10.5301
-8.26542
-11.3675
-14.8851
-13.1067
-11.0848
-9.33261
-13.8501
-12.8525
-8.63424
-6.03493
-8.45727
-5.35325
-9.71934
-7.03258
-3.94808
-1.65627
-4.62762
-0.184563
-4.46024
-1.83744
-17.3672
-5.70277
-21.9462
-7.48735
-12.63
-7.98687
-15.3273
-16.2036
-23.3114
-17.5851
-16.2037
-15.7998
-20.3224
-19.1937
-25.6109
-7.26017
-20.0951
-11.5362
-29.5363
-18.9379
-26.7775
-26.3981
-38.3845
-35.2119
-44.9005
-143.903
-14.8551
-52.7589
-55.2537
-153.052
-148.814
-113.72
-59.966
-57.8007
-167.789
-143.361
-37.8124
232.665
-141.215
114.176
-54.1556
312.747
432.495
-160.975
-144.398
-199.148
-78.2743
-162.548
436.526
439.29
-180.58
-206.83
-163.625
-180.503
-157.473
438.791
-43.5221
-113.413
-26.5201
-146.32
-62.2505
-23.2887
-3.39893
-14.0886
-0.312913
-16.6462
-3.17248
-7.84941
1.60204
-204.087
435.375
436.97
436.562
438.64
433.446
436.14
-145.558
436.647
402.664
437.845
420.637
435.251
420.429
-18.7255
405.582
291.002
429.804
-9.41706
426.778
216.311
2.8181
293.177
2.09169
-3.50661
3.13934
271.125
1.23171
557.815
434.947
427.025
435.276
357.856
434.76
363.403
268.616
415.109
254.09
415.958
277.664
443.52
19.3396
2.03218
319.33
309.412
4.4326
229.576
-115.624
384.324
436.503
418.859
434.893
439.929
428.958
491.522
203.684
438.696
265.437
437.699
138.855
402.291
167.056
0.0898652
355.553
-34.6722
209.588
326.178
582.898
430.269
593.491
426.435
437.204
420.821
372.79
223.215
431.946
209.625
340.818
164.63
326.136
268.85
-38.5213
231.602
-36.0256
225.177
270.857
530.354
416.472
412.804
416.282
410.142
414.501
411.636
413.924
428.536
421.648
429.016
418.215
421.063
418.898
421.883
471.659
430.837
491.197
419.956
373.693
421.213
349.343
174.77
451.234
69.7685
328.799
267.42
275.104
239.958
163.344
267.886
493.984
239.227
760.596
453.54
432.98
210.741
424.346
394.287
428.632
431.35
210.006
394.584
192.473
264.422
183.871
440.882
234.811
373.388
-1.22365
210.425
718.952
264
391.261
428.332
409.71
430.358
549.468
428.698
402.497
181.145
427.904
326.284
438.291
231.512
425.895
210.121
-29.1453
283.763
-1.73865
313.856
233.847
-2.69236
429.821
432.074
433.117
425.102
428.755
430.936
432.062
439.498
432.277
428.256
443.489
431.11
356.525
301.627
-86.5338
423.704
234.541
342.478
295.394
-8.03792
-71.542
-17.9217
259.792
-25.084
297.223
-25.1023
421.813
185.475
26.1113
336.275
420.158
199.439
-42.4878
433.424
-37.08
-63.7558
432.97
433.755
-48.6092
-52.4959
-122.483
-82.2213
-116.573
432.403
324.358
-58.7949
-120.992
-93.4264
-125.176
-130.278
388.159
299.666
-130.782
-115.9
-16.3286
-80.4354
-23.5397
-21.5209
-70.2989
-21.334
-70.5435
50.0423
-29.6614
-51.2913
21.7933
-44.2848
-122.385
-96.65
-70.0785
-140.759
-59.3275
-118.776
18.4561
-21.0699
24.0684
-28.9464
13.0788
-7.20956
-22.0177
-25.0219
-42.7685
-78.5282
-21.6967
-30.6485
-11.7217
10.6014
-5.80862
11.3708
-1.14703
9.88008
0.479302
-18.2917
-9.02607
-9.98203
-12.7647
-16.9265
-7.76413
-11.3717
13.4004
7.65821
10.6606
14.4677
12.6976
9.41905
9.51612
-0.771966
8.15333
-0.695559
8.28911
1.63012
8.05738
2.36638
-6.86619
-3.04147
-3.78013
-3.97863
-6.32483
-0.148514
-3.19184
-3.95333
-2.48865
-2.16071
-6.56235
-5.33087
-3.18952
-3.10538
-1.76677
-1.8471
-0.554311
-4.16775
-1.87108
-2.61188
-0.668457
10.0436
6.49401
9.03961
-0.64453
8.32109
2.00685
-2.82658
0.700427
-2.57612
-1.89803
-2.60695
-2.96462
-0.406639
-2.66273
-0.404025
-9.61886
-10.4379
-9.07841
-8.40531
-5.64415
-4.76232
-0.223631
-7.50115
-6.04839
-6.36565
-14.046
-7.35682
-5.67009
-6.12645
-10.2527
-7.45745
-10.466
-7.31375
-9.68887
-7.15509
-10.0862
-9.40179
-13.7408
-12.8815
-10.7176
-9.90736
-13.5658
-12.8955
-5.48334
-10.6867
-7.92536
-8.65593
-6.12153
-10.9638
-8.19827
-0.20312
-4.79462
-1.93445
-4.55342
-0.729834
-4.89115
-1.95897
-166.147
437.132
439.079
-81.6398
-153.521
438.81
438.744
-157.321
438.632
-174.883
-146.783
438.217
430.992
-60.6164
-23.7289
-119.472
-61.6589
434.759
-34.2474
-4.36304
-11.2816
1.86236
-29.2608
-5.71828