/*--------------------------------*- C++ -*----------------------------------*\
| =========                 |                                                 |
| \\      /  F ield         | OpenFOAM: The Open Source CFD Toolbox           |
|  \\    /   O peration     | Version:  4.0                                   |
|   \\  /    A nd           | Web:      www.OpenFOAM.org                      |
|    \\/     M anipulation  |                                                 |
\*---------------------------------------------------------------------------*/
FoamFile
{
    version     2.0;
    format      ascii;
    class       volScalarField;
    location    "57";
    object      p;
}
// * * * * * * * * * * * * * * * * * * * * * * * * * * * * * * * * * * * * * //

dimensions      [0 2 -2 0 0 0 0];

internalField   nonuniform List<scalar> 
146404
(
-7.28946
-3.22642
-11.1221
-6.80157
-12.4808
-7.3812
-3.76191
-3.22069
-6.19337
-19.9286
-1.7451
-7.6598
-4.0662
-10.6653
-6.02683
-3.18646
-7.27196
-5.84739
-3.76008
-9.75067
-7.77408
-10.98
-7.71057
-3.92495
-5.79597
-7.81318
-11.5831
-9.32448
-4.115
-2.05722
-8.4535
-18.6347
-11.8078
-3.53346
-1.29869
-7.3936
-15.8236
-9.99185
-3.69452
3.91656
-0.748172
-19.888
-3.58129
2.78994
-5.73799
-15.1756
-9.97039
-3.88716
1.15283
-4.11672
-10.4459
-9.06737
-4.43665
-0.176793
-3.06045
-8.75435
-7.89818
-3.79506
-2.41871
-2.40961
-7.83581
-6.35429
-3.53175
-2.59211
-7.26383
-2.60456
-2.22154
-8.35317
-17.0322
-10.6976
-4.9503
2.10543
-8.57219
-24.8158
-16.345
-5.24353
4.19191
-10.7731
-33.7024
-21.6583
-6.36372
6.6172
-8.06546
-26.5736
-16.4963
-7.71663
13.6534
-6.58869
-32.3488
-8.19774
11.6017
-8.29286
-26.8202
-22.0538
-8.60316
14.2623
-5.23546
-28.119
-22.9641
-9.07626
8.79414
-1.72594
-16.6631
-15.2709
-6.18712
5.99148
-3.51603
-13.7712
-9.04725
-4.57407
5.49232
-1.96973
-11.9766
-2.37035
0.926403
-8.90548
-5.05055
-2.78174
-6.89644
-9.50239
-13.5735
-8.35836
-3.04703
-0.237588
-8.28588
-20.9694
-10.4042
-4.0465
7.73672
-2.49337
-28.5938
-9.82376
-6.80044
12.965
-11.5251
-33.5421
-23.8418
-7.90333
21.6148
-30.5858
-53.2021
-40.8073
-9.02781
35.0877
-33.6526
-66.0463
-35.5042
-10.8555
46.3905
1.00892
-71.1818
-12.5407
37.5419
-24.2832
-69.6807
-45.515
-13.8583
28.7062
-23.9289
-59.0527
-48.0094
-14.7335
25.2806
-2.38493
-34.4111
-32.899
-12.3262
18.3608
4.98252
-27.6637
-14.9675
-8.32872
9.33663
0.0788251
-15.0267
-10.896
-5.28354
3.28271
0.00423147
-7.2502
-7.08294
-3.86562
0.840269
-4.05739
-4.98866
-3.46244
-8.59956
-9.64127
-12.2443
-8.77793
-3.7722
-2.42952
-10.2364
-22.2991
-11.8731
-3.69668
3.86359
-11.4602
-29.5234
-19.2651
-6.92047
26.2454
-8.84467
-53.6131
-23.0694
-10.3035
57.2569
-23.0122
-98.707
-68.6659
-9.85123
99.7581
-83.2983
-161.308
-97.6791
-15.0902
111.247
-106.234
-192.447
-96.7617
-21.2072
140.839
-119.472
-88.3352
-31.2701
117.841
-107.272
-181.777
-114.926
-36.1445
98.1603
-59.6779
-144.241
-127.321
-35.3917
61.8851
-2.22324
-92.1977
-140.415
-23.3209
35.8311
8.76288
-53.7915
-45.227
-14.0536
16.2544
0.28161
-21.8112
-20.0309
-7.77284
9.14661
-0.0921753
-11.6626
-10.9742
-4.50227
2.70909
1.42574
-5.90161
-7.11923
-3.70327
-11.3147
-9.5353
-12.6422
-7.58203
-3.57711
-3.32958
-11.6564
-16.8464
-12.4055
-4.28863
1.13592
-10.458
-35.9905
-17.1997
-5.38095
15.6724
-26.4806
-90.4666
-28.6639
-6.59104
61.783
-97.5744
-168.667
-69.9915
-12.2016
143.565
-87.3184
-171.573
-126.43
-14.8325
309.911
435.167
-97.653
-14.55
380.908
433.799
435.134
410.141
384.265
430.712
434.309
429.228
308.224
371.484
430.001
433.565
421.846
304.762
428.366
-116.392
-31.4898
177.122
-167.894
-45.8322
68.4211
-37.921
-113.271
-104.979
-24.0237
24.3
-2.25672
-44.7748
-43.5965
-12.9751
14.0962
4.96026
-20.5612
-23.445
-7.53446
7.81318
0.214139
-9.56069
-9.25337
-5.02742
1.09708
0.687738
-6.32638
-5.22996
-3.21693
-3.09606
-8.36189
-19.1902
-5.92739
-2.64754
0.24962
-10.9479
-22.9543
-12.649
-3.99744
8.6627
-12.5246
-40.4212
-22.3656
-8.04101
40.5729
-76.4186
-123.812
-43.5542
-7.66056
133.503
-92.5113
-204.289
-94.8246
-10.6489
374.532
437.086
437.865
-10.9383
412.551
430.229
433.896
406.126
304.934
413.715
426.766
431.379
437.487
332.958
412.383
425.27
431.53
424.18
283.817
408.56
424.852
429.719
415.559
332.847
389.928
425.32
430.618
398.832
296.48
345.844
431.033
432.728
423.782
-38.913
168.957
-67.7482
-124.723
-124.292
-53.2915
48.2137
-22.1113
-85.9654
-77.7158
-18.5557
24.0167
3.79365
-30.662
-26.7523
-8.20687
12.6967
3.16366
-17.2013
-12.8347
-4.24838
7.20672
1.68651
-13.3658
-3.89042
-2.81166
-2.43572
-7.78769
-16.4038
-8.64876
-3.90555
5.22736
-2.89497
-25.4086
-10.5618
-5.52454
26.2144
-28.1615
-10.4743
83.1014
-76.8697
-157.3
-56.3803
-14.4362
304.003
-183.87
-82.05
-10.537
413.685
431.291
436.092
391.79
276.976
417.032
427.704
435.17
378.895
259.457
415.073
424.048
433.937
431.483
333.486
413.225
421.276
429.818
431.83
213.114
412.584
422.301
431.671
454.672
309.533
408.141
423.191
430.979
349.229
300.291
385.649
426.039
427.458
428.764
316.547
300.6
427.722
432.275
-133.937
-44.1096
89.3032
-44.1034
-146.352
-124.759
-21.1712
36.5893
70.3702
-97.4141
-11.4133
16.4234
9.17479
-23.0968
-14.4486
-5.1692
7.41245
1.31291
-10.4336
-7.08406
-3.87242
2.5126
-6.48323
-4.51812
-2.70971
-6.36518
-9.36826
-6.9904
-3.85437
-0.60234
-7.38293
-18.0368
-11.1696
-3.68103
6.45526
-9.30283
-33.9913
-20.1218
-6.74955
28.9854
-27.5878
-62.1841
-35.5816
-10.1594
95.0967
-80.5715
-179.757
-75.8141
-23.82
379.924
436.799
437.997
438.917
-19.5307
417.013
430.201
435.042
388.303
264.187
416.975
425.998
433.778
459.919
173
414.749
421.269
425.312
301.541
241.51
408.788
417.306
413.194
338.883
256.23
410.78
418.304
420.407
294.562
233.594
411.3
421.78
430.202
441.095
168.374
398.376
422.791
427.85
412.799
257.664
347.087
430.259
433.423
386.127
318.021
126.501
-59.8675
-128.983
-143.228
-46.4114
28.6897
-0.40005
-55.0892
-37.4852
-12.4312
15.2444
0.948347
-16.8173
-17.1769
-6.84589
8.3335
3.09797
-8.49662
-9.87275
-4.70315
0.803735
2.40281
-3.6679
-5.03801
-3.2617
-12.9894
-6.21083
-9.11518
-6.94518
-3.64435
-0.384291
-7.24286
-17.7268
-11.149
-3.75742
6.73917
-9.60512
-34.2194
-20.4482
-7.00402
28.7099
-33.4581
-76.4351
-45.594
-10.6299
116.669
-62.5807
-161.574
-93.3729
-23.6536
385.536
437.681
437.618
420.431
417.624
431.02
436.005
441.569
343.934
417.8
426.391
442.122
447.393
196.187
412.43
421.511
417.872
336.276
275.741
408.188
417.18
404.209
338.208
264.012
407.241
418.251
412.244
336.127
259.818
412.662
422.422
428.513
455.644
209.996
401.868
423.591
428.927
441.75
258.979
353.393
429.778
432.191
415.877
321.961
139.025
-58.5254
-135.19
-133.919
-39.1456
25.7728
-6.55575
-49.2869
-43.3274
-13.0926
16.392
1.0144
-19.159
-18.8729
-7.46893
8.70253
3.1713
-8.76712
-10.8615
-5.0303
0.88076
2.39352
-3.90988
-5.42575
-3.67895
-6.10294
-8.96696
-6.52243
-3.86378
-2.31219
-6.14973
-13.8152
-9.72465
-3.7175
6.01514
-5.53687
-24.9322
-17.4474
-6.26132
32.3616
-12.7698
-53.2882
-37.416
-11.1869
118.836
-79.0133
-163.849
-100.723
-17.8487
374.05
436.88
438.292
413.751
-15.8094
415.612
431.721
435.614
426.83
277.371
419.008
428.632
438.968
440.711
204.992
416.972
423.739
428.201
329.724
235.887
413.856
420.4
417.898
336.172
270.117
415.081
421.387
425.153
332.884
261.374
412.258
425.214
433.635
440.226
144.274
398.843
426.843
430.145
352.765
265.137
337.846
433.999
433.617
422.944
321.757
108.2
-52.1592
-119.401
-159.875
-17.5892
35.4558
2.6442
-54.6966
-56.228
-11.0446
16.21
4.43038
-18.2606
-19.3536
-5.3183
6.59522
1.63792
-8.71145
-8.99116
-4.68549
0.0814779
1.98697
-4.06306
-5.58715
-3.31249
-0.452593
-6.26095
-15.4755
-6.75653
-3.16933
7.46704
-4.3054
-24.7107
-5.76437
-5.28022
25.6772
-14.773
-8.35299
73.0693
-47.1608
-149.64
-86.5916
-13.8367
286.38
-148.376
-114.542
-14.2402
397.091
433.45
436.489
438.657
294.258
415.993
430.298
435.838
432.598
225.544
418.273
428.758
433.817
446.988
334.489
418.069
432.166
439.66
444.935
228.301
414.444
426.995
433.67
431.26
258.449
407.902
427.103
431.427
374.164
261.241
384.686
431.657
431.028
373.709
301.126
292.396
432.02
434.294
-117.717
-29.1784
64.7352
-50.2579
-187.76
-103.561
-13.4708
24.8213
3.53343
-61.3869
-7.63117
11.6747
11.0724
-26.5514
-18.2324
-4.69845
5.0511
4.49173
-12.9281
-9.68765
-3.74213
1.27324
-7.50476
-5.68532
-3.06987
-3.74221
-8.16307
-17.7735
-7.07067
-3.00183
0.64237
-8.97023
-18.3802
-12.1071
-4.91179
8.26257
-10.8161
-35.2584
-25.0969
-6.72751
34.4349
-37.6228
-96.5427
-54.9349
-9.38435
125.357
-68.6903
-141.674
-114.016
-20.5939
332.17
439.087
439.668
-19.865
393.346
434.173
436.049
430.376
266.868
405.632
430.254
434.519
447.672
254.127
407.57
429.83
438.85
359.552
172.942
402.458
429.417
433.047
442.157
263.408
384.361
432.822
431.883
403.812
291.998
336.847
434.864
434.924
342.316
-25.041
93.1176
-102.122
-177.036
-119.769
-12.983
9.70155
-13.1625
-48.9952
-30.8404
-9.73211
3.98534
-7.87072
-34.4409
-24.7152
-6.76544
2.34606
-9.33096
-19.2965
-11.8807
-5.01052
0.0259285
-5.97031
-18.0737
-6.79393
-3.16598
-11.7618
-7.5628
-10.8748
-7.18383
-3.79185
-3.91564
-8.01616
-12.495
-9.58363
-4.2424
1.99877
-7.54631
-21.672
-14.2747
-4.51504
16.1022
-9.87564
-36.0212
-31.3336
-8.50759
50.8176
-39.262
-113.068
-69.0413
-11.7397
122.886
-59.0871
-156.282
-116.484
-26.6763
283.27
435.967
-131.3
-99.0682
-26.2836
353.86
435.517
438.077
394.326
361.276
436.077
438.574
403.5
321.871
350.988
435.581
436.719
423.278
281.9
434.471
-100.161
-23.986
94.5028
-124.21
-13.2157
32.7653
-36.755
-87.4974
-52.8463
-9.42048
3.74134
-8.67543
-27.5102
-17.139
-5.5493
-1.58373
-9.349
-17.3497
-11.5329
-4.37916
-3.3438
-7.74189
-13.3313
-9.80924
-4.37099
-6.86965
-6.85362
-11.2108
-7.64948
-3.71708
-7.84748
-7.12955
-9.91165
-7.53689
-3.3438
-2.39246
-6.7947
-14.4121
-9.45695
-3.64469
5.06925
-7.22315
-22.702
-16.3202
-5.32297
22.0869
-1.05438
-45.4956
-23.8203
-7.79964
37.3108
-27.0815
-79.1614
-43.2593
-10.7216
53.007
-76.4829
-134.226
-71.3185
-12.959
73.4329
-133.521
-145.114
-70.2447
-20.4822
80.9024
-130.714
-87.7338
-16.9584
75.8113
-111.733
-169.772
-84.526
-8.87026
47.8721
-75.8725
-139.349
-71.6604
-10.7737
29.1192
-18.5887
-85.1659
-53.4178
-8.76578
13.379
-8.37208
-52.5322
-24.0234
-5.81607
1.92776
-7.89519
-22.6033
-16.0965
-4.52442
-3.27704
-8.17185
-14.656
-10.9175
-4.78998
-6.64478
-7.40002
-11.2305
-9.12709
-4.49711
-5.25956
-7.39643
-12.2258
-7.67713
-3.36392
1.23434
-5.64715
-19.1487
-9.97913
-3.86295
5.04427
-5.6621
-25.8911
-9.44301
-4.73204
4.96212
-7.74144
-25.5311
-16.8682
-5.80388
6.75933
-11.8076
-34.453
-21.0099
-6.81623
21.0241
-16.5552
-46.7312
-32.1422
-7.53055
26.981
-25.6112
-40.6766
-7.36401
8.00615
-20.3987
-52.2997
-22.0192
-6.76664
3.6124
-9.23011
-29.6266
-19.0255
-6.3495
5.49729
-8.91408
-27.5483
-20.7893
-5.35853
2.5659
-4.31351
-28.2552
-14.5464
-3.80739
-1.7155
-6.28458
-20.2648
-9.85442
-3.6047
-6.347
-7.66369
-12.5477
-8.71602
-4.26419
-7.21983
-9.87951
-7.50618
-4.22617
-2.93868
-1.03436
-2.43395
-2.99421
-7.09467
-13.4433
-8.33883
-3.87605
-0.26844
-6.34917
-15.2571
-11.0753
-4.79661
-0.449716
-7.43025
-18.4818
-11.1019
-3.63468
3.22921
-6.98183
-21.4637
-14.8888
-3.83785
6.99198
-9.34869
-17.3061
-3.78423
-0.705904
-11.7434
-23.8345
-10.4138
-3.82132
0.0835679
-8.42947
-16.4498
-10.475
-3.87376
-3.34321
-8.77137
-15.9437
-11.2649
-4.74313
-4.95447
-8.71336
-14.9396
-9.14783
-3.92529
-3.94533
-0.970344
-21.9588
-11.3319
-2.85524
-13.8236
-6.0056
-3.25346
-10.4348
-6.49906
-9.96934
-6.33403
-3.30697
-6.70126
-6.55263
-9.59595
-7.86276
-3.96915
-4.78918
-6.43144
-11.9956
-8.77991
-3.90755
-3.11568
-7.04581
-14.1093
-8.71054
-3.76181
0.0544906
-8.84414
-10.2366
-3.90579
-4.07185
-10.1004
-15.0695
-9.00914
-3.94242
-7.05209
-9.17682
-12.2365
-9.25106
-4.04946
-8.45391
-8.50876
-11.5952
-9.09876
-4.4494
-10.6092
-8.12316
-11.3363
-7.67443
-3.91312
-11.6919
-6.2116
-10.9865
-7.21282
-3.40634
-9.01254
-8.95373
-4.65839
-2.61979
-12.2643
-8.39732
-13.5035
-7.76853
-3.64888
-7.54554
-4.14623
-10.8145
-11.3619
-8.67422
-7.59016
-4.30176
-3.65027
-0.190128
-8.28987
-0.240964
-11.4475
-11.2452
-19.2729
-11.857
-8.7975
-19.7016
-9.45606
-7.44069
-4.24313
-9.42116
-2.60028
-3.64138
-0.221105
-2.25706
-0.298303
-7.89512
10.1096
-2.45175
-6.12038
-3.57529
-10.5456
-10.9576
-7.32748
-20.8441
-2.36628
-5.70364
-3.42633
-2.09029
-0.272735
-3.03384
-0.260098
-3.17301
-4.10273
-9.81937
-10.312
-7.26706
-5.76293
-3.5661
-3.09253
-0.308678
-7.38103
-7.63239
-10.5781
-10.8901
-8.43546
-7.26868
-4.35958
-3.68879
-0.0737882
-13.6535
-7.47992
-9.11969
-7.33706
-7.66753
-10.3886
-7.65293
-9.4114
-10.6764
-8.41903
-10.3299
-9.16746
-7.32215
-4.51283
-7.98985
-5.23396
-3.85555
-0.182007
-4.04508
-0.686533
-8.37051
-7.14594
-6.38182
-6.70865
-7.49349
-9.41919
-7.41042
-10.2147
-10.3291
-9.51792
-11.6106
-10.446
-8.38128
-5.59596
-9.34526
-6.07509
-4.24692
-0.653313
-4.52858
-0.811285
-11.5712
-6.59361
-6.09946
-6.28269
-4.92068
-5.4613
-6.92158
-10.6344
-7.35963
-9.66446
-7.29609
-10.8881
-9.2198
-11.466
-9.41264
-12.3501
-11.3113
-13.8992
-12.6765
-5.27392
-7.33789
-4.6579
-9.07414
-6.67338
-9.79755
-6.96838
-3.56067
-0.509948
-3.95329
-1.50734
-4.01311
-1.56832
-6.27232
-4.21996
-0.0789287
-3.57088
-4.2523
-0.686687
0.521807
-11.7486
-8.10866
-19.6333
-7.6179
-11.8779
-12.7827
-22.8371
-9.67435
-19.9465
-10.7767
-13.7385
-11.7112
-23.7482
-13.3936
-4.81473
-5.14014
-3.37355
-8.16951
-6.41828
-5.57492
-3.56838
-0.563008
-2.48472
-0.555448
-4.06764
-1.73095
-2.94705
-1.33905
5.24786
-7.2753
-2.36997
1.60436
10.3908
-0.000632098
-0.689759
-3.8566
-10.2518
-1.81326
-3.60581
-11.5789
-10.9372
-7.98639
-15.548
-12.4703
-10.9409
-2.52334
-5.60855
-3.82367
-19.2449
-4.58673
-8.31377
-5.25688
-0.441012
-3.03395
-0.52898
-3.54513
-1.42604
-3.84494
-1.72501
-3.28637
-3.36711
-0.70839
-1.9116
-1.31312
-2.35775
-9.78258
-3.55953
-7.04675
-5.03359
-9.64702
-4.92301
-7.70476
-8.2964
-7.60158
-6.79113
-12.434
-11.289
-9.86743
-9.06879
-3.97074
-5.95855
-4.04418
-7.52127
-5.31296
-7.76494
-5.88799
-0.582271
-3.49017
-0.288395
-3.70504
-1.61482
-3.86292
-1.64377
-1.13005
-2.13541
-2.16947
-2.16864
-6.62844
-3.8634
-5.99389
-3.02112
-6.19102
-6.54791
-8.49289
-8.71907
-7.60216
-8.04512
-4.07839
-7.31727
-5.63764
-7.37307
-5.25542
-0.273913
-3.54064
-1.4471
-4.09314
-0.735685
-2.5733
-2.17847
-4.38824
-1.97581
-2.92912
-5.97064
-2.28966
-5.73559
-7.35017
-7.63568
-7.15517
-6.94695
-7.05499
-4.96405
-5.97089
-4.35247
-3.92446
-0.694942
-3.50829
-0.607921
-5.04265
-1.89578
-2.2027
-6.60696
-7.311
-6.84707
-6.16473
-4.03628
-3.51083
-0.355492
-7.00332
13.4142
-4.1843
-3.01427
-2.55512
-0.481353
-11.911
-7.29913
-5.42755
-1.54937
-5.49492
-5.41822
-7.5775
-11.0768
-11.1999
-8.64286
-13.4333
-11.4828
-9.24184
-12.626
-14.7243
-12.4178
-7.16087
-4.55692
-1.53968
-3.85981
-7.51593
-4.90783
-3.54855
-0.464173
-2.93022
-0.55693
-3.24766
-1.3016
-7.22828
-6.95189
-6.65883
-5.22615
-5.30705
-4.1924
-5.22902
-10.4101
-7.90241
-9.74821
-8.28526
-12.204
-8.05997
-11.7138
-9.41575
-11.347
-10.9646
-13.9559
-12.7413
-14.0951
-13.0968
-5.07143
-8.38092
-6.47174
-8.98532
-6.36861
-10.1345
-7.26393
-0.634194
-3.68619
-1.46727
-4.11134
-1.76459
-4.27781
-1.71799
-13.1854
-12.6629
-23.6081
-7.68259
-16.345
-5.84727
-32.6286
-14.0753
-24.808
-14.3591
-20.1263
-17.9205
-33.2873
-21.1915
-3.50484
-12.8539
-6.54897
-2.48593
-17.8125
-16.722
-13.8476
-12.5267
-23.8372
-20.1079
-18.554
-0.667574
-2.07083
-1.52071
3.75317
1.37247
2.53406
1.41622
-1.37557
2.11088
1.37575
3.34237
4.25888
-6.62973
-3.30507
-8.84741
-0.337201
-15.3256
-7.58842
-11.5309
-10.5575
-15.5528
-9.333
-4.39189
-7.59485
-5.23578
-4.83613
-4.65023
-0.66064
-3.59444
-1.59296
-3.25451
-0.647463
3.28651
7.22875
2.00069
-17.1772
1.08739
-9.8322
-17.5474
-9.85717
-10.8334
-6.98097
-7.8016
-2.53673
-4.99086
-2.50589
-2.21706
-0.54656
-2.25235
-0.318463
-10.3008
-8.59687
-9.18038
-11.3808
-12.0413
-9.47384
-7.80566
-4.59784
-3.49778
-0.583782
-5.30198
-0.251895
-8.66268
-7.99016
-4.75416
-5.38237
21.5741
-9.44494
-12.0646
-8.88534
-17.3071
-36.227
-13.0973
-11.1848
-17.7461
-12.0706
0.0137277
-3.58651
-7.22087
-5.01892
-7.02153
-5.02562
-2.73407
-0.561799
-3.05799
-1.23365
-3.2328
-1.37094
-7.4392
-16.7089
-7.97889
-20.4336
-4.08347
-28.9895
-17.3615
-13.2898
-20.576
-12.0635
-27.4978
-18.5167
-21.6607
-6.05136
-35.1332
-13.4087
-33.6031
-9.44321
-64.6918
-24.4704
-35.5804
-23.7985
-40.4702
-36.7814
-59.6504
-45.9164
-2.69875
-21.1236
-0.910123
-2.73518
-39.2206
-26.6371
-23.8642
-22.9949
-51.7574
-43.9936
-40.0136
-12.2725
0.747713
-16.5236
3.15816
-20.8324
5.92266
-17.7237
-12.8584
-16.7553
-9.76136
-23.9421
-21.0125
-19.0043
-15.0701
9.3746
-2.423
2.44516
7.04103
7.45077
4.0578
3.62219
0.940862
-8.70004
3.19825
-12.8745
-0.118791
-6.14456
-10.4438
-10.5189
-7.78408
-16.1786
-13.7009
-10.0403
-9.70623
-3.30427
-4.80918
-3.25154
-9.35581
-5.33178
-6.85054
-5.19464
-1.10946
-2.59624
-0.607166
-3.73346
-1.59253
-3.73619
-1.77446
2.12042
2.38652
1.93364
1.07385
-7.88796
0.49104
-5.40287
0.696594
-3.43181
-6.74609
-7.3859
-7.6849
-4.32643
-5.66807
-3.28022
-6.83093
-4.54001
-5.0261
-4.1441
-0.366879
-3.74342
-0.785939
-3.50097
-0.349025
-12.5961
-9.43305
-9.25636
-10.4369
-10.8726
-9.10926
-7.79518
-4.98071
-3.79589
-0.576648
-9.31236
-8.57119
-10.7927
-9.23387
-7.74522
-8.1578
-9.46953
-10.726
-9.42558
-10.781
-9.71575
-11.7974
-11.8743
-10.6486
-11.1524
-9.61867
-13.0175
-11.7853
-7.94646
-5.8757
-8.21597
-5.24435
-8.87373
-6.39452
-3.4537
-1.3624
-3.85737
-0.602934
-3.61144
-1.38972
-20.9146
-6.85031
-33.2197
-10.2986
-20.645
-6.69138
-35.991
-15.3152
-29.5282
-24.2318
-24.5547
-21.639
-38.0055
-28.6259
-30.0902
-10.5932
-27.4892
-3.01911
-45.2537
-8.03231
-54.3546
-19.372
-29.8343
-29.6966
-45.402
-30.4501
-64.1544
-51.7237
-57.4752
-8.06302
-76.0843
-115.792
-164.005
-96.4221
-179.115
-56.8368
-69.5722
-57.2227
-142.751
-99.946
-178.428
-92.5244
-8.87981
-52.8764
-66.8052
-84.932
-166.248
-62.8017
-58.9118
-53.9669
-92.062
-173.277
-110.062
-21.9951
3.53499
-24.1459
3.19435
-64.4096
46.1515
-38.6225
-28.497
-29.3196
-83.6321
-115.084
-69.8559
-25.5063
4.54458
-16.9488
17.2374
-50.2987
5.00592
-16.9658
-22.9693
-20.2398
-17.7999
-49.1151
-53.9021
-21.625
-25.7522
3.10251
-4.00104
1.41635
5.77925
4.03512
2.97679
2.64202
-3.63905
0.611742
-2.80607
0.903193
-4.1288
1.09546
-2.0497
-8.31502
-4.65181
-5.9996
-8.86105
-10.0396
-6.34352
-7.61288
-5.61943
-5.2304
-4.38132
-9.61347
-7.07813
-7.65591
-6.35721
-1.77633
-3.42085
-0.64114
-4.76815
-2.13865
-4.03729
-1.78917
1.09945
1.45999
1.74508
-3.11628
1.12292
-2.90706
-5.54527
-5.19077
-6.53671
-4.1171
-6.62662
-4.71268
-0.385803
-3.75431
-0.772027
-9.76013
-11.9847
-12.1058
-8.44046
-8.01171
-4.34065
-3.98814
0.0325488
-11.2535
-9.32599
-14.8749
-9.30201
-7.91456
-8.78718
-9.44632
-10.7436
-9.48486
-11.8195
-9.95755
-11.5145
-11.1805
-9.64277
-11.9402
-8.55644
-12.4685
-11.2264
-8.23194
-5.30415
-7.78095
-4.33908
-8.34467
-5.8694
-3.95209
-0.593957
-3.80824
-0.117649
-3.35404
-1.24136
-51.7092
-10.7509
-73.1421
-41.3
-96.4556
-78.7104
-162.363
-38.5434
-78.2304
-79.7983
-105.271
-77.4436
-168.602
-144.652
-87.3611
-84.1592
-114.061
-4.7094
-104.727
-124.253
-103.501
-149.553
-158.813
-155.14
-135.124
-125.595
-126.422
-88.0055
-180.736
-129.301
433.698
436.148
-161.957
-191.992
-130.841
-135.454
-123.057
435.542
-41.5005
-95.2599
-43.2998
-93.5971
-30.5397
-27.152
-3.76856
-17.6044
-5.18403
-17.4719
-3.30649
-16.33
-1.50009
-102.538
138.909
-176.972
333.666
429.549
345.273
425.072
-188.045
-156.088
-182.917
435.25
436.16
432.62
435.148
-118.164
-181.928
-88.0838
435.439
387.335
434.788
364.78
-48.2913
-85.8801
-49.5153
417.712
-25.5355
441.508
-6.49454
-27.2802
-5.72157
-19.2894
-2.00375
-0.831876
-130.801
123.322
-129.406
345.466
425.353
338.772
423.985
-121.084
-172.949
432.363
434.385
431.924
434.385
-87.7441
-182.8
-123.399
434.187
401.163
433.856
359.259
-51.0389
-99.769
-62.4128
427.381
404.838
-46.4514
-8.37472
-31.5043
-8.58186
0.263124
-34.9673
-1.97353
-169.318
-57.4553
-134.253
431.661
434.496
430.178
-139.661
-157.985
-159.341
433.992
385.038
-131.116
-65.1043
-120.15
-74.2324
415.953
-46.8169
-120.702
-59.4576
-8.58213
-39.1879
-7.90498
-37.2164
-2.86813
-33.5592
-2.25061
-87.33
-52.3525
-80.1278
-113.986
-79.102
-88.6395
-162.484
-125.747
-156.583
-121.383
-134.557
-92.6574
-119.232
39.0232
50.5886
38.7539
106.074
22.9623
72.9728
28.8704
-67.0444
21.0237
-66.6149
-15.414
-79.7142
-151.232
-61.5559
-79.7653
-98.3899
-174.027
-71.0735
-74.2523
-51.5679
-128.244
-93.3493
-173.57
-77.6085
-40.0102
2.67694
-18.4577
-15.6124
-51.858
-3.47053
-33.2814
-63.311
-30.3842
-38.7261
-89.6036
-120.782
-50.7628
-64.4202
2.09145
4.91539
3.39729
1.65497
2.01403
-1.70243
1.1187
-3.00139
0.926558
-3.67212
-7.04251
-7.39324
-8.31651
-5.42999
-6.31495
-5.60846
-7.86936
-6.13071
-5.57917
-4.1805
-1.63251
-3.97142
-1.72289
-3.30256
-0.661483
0.420425
1.65685
1.08106
-4.25133
-5.21722
-5.81396
-4.8107
-3.79834
-3.29016
-0.327913
-15.4817
-9.88672
-7.62366
-5.65271
-10.045
-12.4039
-10.395
-17.2586
-12.4699
-8.28178
-17.0899
-9.69237
-7.52726
-3.96961
-5.59437
-3.70415
-4.59491
-0.0784189
-2.89116
-0.486909
-8.94595
-6.85351
-7.8541
-6.30562
-6.95243
-4.49739
-6.60394
-12.5409
-10.5497
-13.1663
-11.204
-16.0108
-11.3582
-15.7344
-9.72394
-14.4526
-12.8685
-15.7963
-12.3394
-16.84
-14.3899
-4.65589
-9.26376
-6.51941
-6.40799
-4.82339
-8.74845
-6.01367
-0.494699
-3.74325
-1.45204
-3.02672
-1.21392
-3.7302
-1.52423
-163.493
-103.78
-159.229
-79.8538
-207.981
438.379
-122.734
-176.936
-146.599
-203.503
-138.846
-115.322
-159.055
-131.591
438.065
438.582
431.919
436.13
-146.239
-139.339
-116.94
438.438
-110.048
434.387
375.265
-34.9076
-99.7709
-34.3438
-87.7681
-21.6406
423.889
319.236
-3.21247
-19.8252
-0.867949
-11.5065
-0.831756
316.848
433.274
436.398
432.508
435.078
429.804
433.21
-115.569
435.465
460.041
433.117
405.597
432.344
414.985
-28.316
424.533
406.845
316.573
418.622
347.801
-0.242251
-13.8115
0.0759993
318.629
18.5006
277.049
8.00946
435.666
431.404
433.279
427.098
431.926
426.205
430.537
401.806
434.741
342.902
432.028
412.416
431.189
441.493
449.757
351.89
438.912
312.781
443.577
247.559
-0.0410118
329.839
0.628093
245.484
2.62511
303.567
0.329485
432.59
431.007
434.05
425.423
429.847
424.933
429.543
403.483
433.251
391.049
431.159
433.686
429.299
474.287
323.228
410.976
324.894
424.495
297.781
371.045
292.892
1.10536
0.444291
297.765
295.729
6.68992
434.093
430.087
434.024
425.832
430.241
428.028
431.456
373.233
433.385
-128.927
429.81
414.812
429.311
376.74
-116.439
-48.5219
352.576
224.158
411.005
278.03
0.142815
-35.0086
-1.36707
237.803
6.00529
315.206
-8.57597
433.831
-85.0557
425.874
431.902
431.436
433.157
-129.187
-102.152
431.362
549.559
432.352
410.774
-50.4131
-94.1364
-74.2796
403.664
323.646
396.027
-54.3499
-2.75569
-50.7298
-6.51752
305.021
-14.6153
-38.1161
-0.407361
-74.8165
-81.3182
429.062
433.352
-68.4052
-102.076
-117.355
-163.838
432.899
410.32
-114.51
-149.509
-90.2042
-164.966
-102.045
-60.722
-134.377
-100.653
2.11133
5.59975
4.64937
-4.63266
0.941084
-10.2464
-6.27838
-11.3872
-7.79352
-3.80569
-4.72278
-3.07209
-0.62479
-2.83394
-0.64428
-5.7302
-4.64504
-4.05173
-2.60388
-9.68843
-19.6057
-4.99518
-16.1292
-18.8156
-7.51951
-16.6982
-12.2435
-2.58406
-3.47633
-8.09379
-4.2165
-2.56882
-0.570448
-3.33544
-0.601019
-3.62925
-1.67721
-5.01287
-1.42474
-1.47948
1.29159
1.45191
-19.5847
-9.93931
-21.345
-4.74554
-16.6276
-5.41404
-24.8775
-9.50108
-21.2343
-15.2815
-17.3721
-13.6421
-26.245
-10.9171
-4.35286
-11.3354
-5.06315
-10.3621
-4.7379
-4.55135
-6.75957
-22.3566
-13.1746
-29.1104
-7.05492
-27.0858
-14.4133
-17.8078
-32.2489
-26.8523
-28.0985
-11.8703
-36.6591
-33.1801
-27.7292
-51.5758
-14.9301
-58.6758
-37.3965
-115.846
-37.4012
-61.3714
-52.3501
-54.4159
-43.6152
-120.658
-70.7222
-129.011
-119.569
-183.995
-68.1648
-151.697
-134.103
-185.638
-86.3463
-203.209
-137.283
-157.843
-119.191
-190.726
-117.32
-196.032
438.167
438.885
-188.701
433.436
437.638
-125.838
438.578
-107.388
-189.052
-100.784
437.027
458.983
-28.3763
-85.3087
-21.835
-71.9181
-21.9003
406.413
296.399
-3.38124
-11.7217
-0.725359
-14.2785
-1.20098
309.037
-3.00811
435.558
417.27
436.376
371.093
436.046
385.175
-19.1826
433.377
316.546
352.725
275.317
380.034
154.085
-0.173943
306.293
306.236
-9.51949
284.22
-0.0409354
422.611
432.589
360.891
436.068
410.888
433.399
453.826
311.077
417.269
301.103
420.145
270.896
440.04
252.797
2.1007
335.252
7.56997
288.672
-1.55042
235.145
-52.4983
413.88
431.27
439.469
432.055
557.944
430.879
621.242
320.225
442.431
222.057
424.362
251.714
432.246
278.935
-0.378453
303.914
4.06053
137.652
272.662
-34.8015
429.667
429.403
416.133
431.881
467.179
431.387
427.227
273.783
364.939
305.591
427.885
3.97223
436.576
197.592
268.139
1.83068
195.211
-72.0685
375.941
430.134
441.411
431.024
444.31
430.861
423.644
274.755
423.551
298.886
450.775
231.802
386.428
230.468
5.46742
337.372
-3.7334
164.263
267.603
-1.57404
410.397
432.333
408.512
430.452
210.786
428.752
409.144
293.239
417.445
400.363
146.553
430.092
287.472
-27.793
1.2472
274.847
0.4022
258.323
-3.21653
433.435
-63.7884
-106.797
429.759
429.454
428.492
433.089
419.966
-120.733
-140.379
429.204
409.794
432.061
-55.8361
-127.358
-81.6558
430.512
287.611
-130.23
-63.2421
0.574318
-56.5692
-3.89217
318.392
-4.62296
-48.2715
-4.68793
-109.288
-71.0359
-126.716
427.65
-65.5421
-147.58
-151.01
-150.63
-152.195
-141.483
-159.325
-154.309
-91.8423
-126.96
-88.8873
-132.867
-74.9813
-138.042
-95.8535
-59.0293
-3.07651
-29.9699
-46.7213
-135.947
9.3422
-59.433
-95.1421
-44.2198
-53.2211
-139.231
-137.797
-58.7825
-64.6489
-18.3327
2.03332
-15.5145
17.2255
-51.3217
12.8119
-31.9552
-18.6279
-18.768
-51.5915
-49.187
-28.337
-14.4937
4.26786
-12.0898
7.02653
-28.8166
7.29118
-13.4698
-16.172
-12.8764
-9.64466
-26.6639
-23.3074
-16.317
-12.6747
7.10948
8.16744
8.53808
0.544075
4.6262
-13.3039
5.63345
-10.1624
3.17775
-6.65208
-8.71915
-12.6742
-11.2434
-8.55636
-6.9628
-2.53224
-8.29605
-2.892
-4.27492
-2.68815
-1.33559
-2.68822
-1.27687
-2.36117
-0.578182
4.34158
3.01508
-6.15279
-7.27145
-6.06228
-4.4722
-2.70855
-2.46241
-0.237283
-4.42882
-4.48323
-6.32337
-5.44679
-5.43916
-7.78216
-11.5702
-6.32441
-9.08776
-7.08325
-9.94173
-13.2284
-11.3909
-9.57343
-7.74431
-12.1956
-11.0785
-7.08169
-4.80344
-6.93387
-4.40694
-8.01731
-5.75357
-3.20788
-1.36677
-3.85732
-0.0378203
-3.65825
-1.51524
-15.7818
-5.02635
-20.2942
-6.38478
-11.0504
-6.8004
-13.6456
-14.2612
-21.2458
-14.9447
-14.4192
-13.7346
-18.4375
-16.5203
-23.748
-5.5173
-17.9548
-9.67603
-27.1759
-15.8578
-24.4045
-23.0298
-33.9113
-29.5904
-37.6176
-134.125
-13.2659
-48.3557
-59.187
-148.219
-133.401
-64.8059
-52.0618
-44.9229
-149.466
-98.2593
-31.9949
231.94
-135.382
109.914
-65.0021
310.252
432.65
-158.693
-136.491
-185.675
-92.2662
-169.052
436.496
439.119
-89.0601
-186.075
-116.538
-169.008
-104.493
438.744
-33.9162
-81.2795
-23.2428
-82.9514
-43.8466
-33.1251
-4.86357
-14.5892
-4.92971
-17.1852
-5.18985
-19.3437
-2.4086
-186.175
435.157
436.773
436.752
438.768
433.34
436.079
-103.058
436.551
402.616
438.054
421.412
435.266
420.971
-18.5033
405.677
293.492
430.785
-25.4992
427.429
219.394
-2.06294
296.73
6.54576
-18.4856
-1.47173
274.473
1.62637
557.686
434.718
426.399
435.269
357.82
434.704
361.155
269.464
413.886
251.219
416.17
280.766
444.264
50.3261
3.0996
315.259
312.595
4.47889
227.544
-110.113
383.96
436.494
417.337
434.899
438.501
429.236
492.046
197.849
440.232
257.218
437.306
146.205
408.462
166.53
0.188531
370.638
-16.0258
210.297
333.315
582.464
429.993
594.72
426.589
440.912
420.191
374.476
218.546
432.233
211.742
351.603
164.333
334.059
270.946
-20.7502
235.693
-33.2569
231.888
271.067
500.984
416.315
412.417
415.924
410.573
415.063
411.641
413.948
428.227
421.356
428.725
418.28
420.292
418.782
421.579
472.518
430.587
491.493
419.43
374.853
420.725
354.543
176.285
453.095
72.4034
336.307
269.486
279.215
250.683
169.092
267.027
461.061
245.587
716.018
454.54
432.38
209.976
424.442
394.469
428.469
426.344
208.297
395.388
197.8
271.166
188.879
440.574
233.562
380.807
-2.18295
218.093
677.967
256.341
388.079
427.97
410.125
429.542
548.537
428.345
402.409
182.697
427.314
328.372
439.232
228.732
426.585
208.288
-26.7368
286.15
-1.27138
308.683
236.025
-3.09718
429.385
431.205
432.958
424.527
428.332
430.285
431.875
439.097
431.978
427.919
444.016
431.108
358.659
305.325
-60.7581
424.424
235.427
343.826
300.112
-9.45933
-46.4808
-2.9407
262.194
-27.5108
301.931
0.823468
417.465
171.064
-6.30681
330.811
418.751
187.684
-74.5224
433.12
-90.0007
-148.326
432.122
433.675
-80.6662
-109.302
-141.56
-147.839
-157.698
432.441
325.782
-118.952
-153.954
-68.4382
-152.726
-86.2079
389.361
304.84
-154.04
-76.1567
-2.44015
-43.3661
-10.7508
-0.117762
-42.4547
-10.0257
-145.312
28.683
-54.0539
-102.377
7.09478
-72.033
-142.164
-75.2294
-122.719
-161.318
-91.0131
-106.688
11.178
-27.4744
10.7794
-45.1201
4.20378
-15.7085
-27.4728
-26.1247
-57.0294
-69.5231
-27.0771
-32.092
-18.1867
4.11533
-11.1256
4.34746
-8.20621
3.15678
-5.7527
-20.7246
-13.5459
-12.9803
-17.413
-19.8255
-12.438
-14.362
6.41199
0.680357
4.23786
7.47643
5.90307
2.88268
3.30979
-5.98394
2.15949
-5.58475
2.10625
-3.87649
2.10956
-2.6826
-10.1645
-7.38269
-6.79818
-8.51665
-9.51192
-4.62611
-6.13859
-5.10554
-5.02413
-3.45798
-8.3229
-6.01414
-5.53814
-4.04197
-1.8413
-2.7916
-0.569547
-4.26248
-1.9066
-3.16245
-0.759989
3.73102
0.0271495
2.95418
-5.40369
2.36388
-2.86244
-5.71843
-3.9077
-5.36378
-3.10108
-5.04846
-3.77925
-0.403662
-3.21275
-0.456041
-8.18314
-8.96521
-7.44718
-6.74944
-4.42618
-3.66007
0.00751054
-6.34457
-4.86517
-5.29387
-12.9949
-6.28719
-4.55919
-5.12738
-8.82198
-6.42309
-9.14941
-6.2263
-8.28941
-6.20113
-8.77228
-7.81366
-12.06
-11.0387
-9.22328
-8.24941
-11.8815
-10.997
-4.49953
-8.70008
-6.40432
-6.99146
-4.84769
-8.8811
-6.63591
-0.112733
-3.84925
-1.54101
-3.64386
-0.555817
-3.94295
-1.59046
-173.371
437.281
439
-61.8511
-150.518
438.278
438.682
-104.595
438.588
-162.291
-121.124
438.239
430.242
-44.2848
-32.532
-93.2896
-44.044
435.541
-29.4579
-5.63112