/*--------------------------------*- C++ -*----------------------------------*\
| =========                 |                                                 |
| \\      /  F ield         | OpenFOAM: The Open Source CFD Toolbox           |
|  \\    /   O peration     | Version:  4.0                                   |
|   \\  /    A nd           | Web:      www.OpenFOAM.org                      |
|    \\/     M anipulation  |                                                 |
\*---------------------------------------------------------------------------*/
FoamFile
{
    version     2.0;
    format      ascii;
    class       volScalarField;
    location    "37";
    object      p;
}
// * * * * * * * * * * * * * * * * * * * * * * * * * * * * * * * * * * * * * //

dimensions      [0 2 -2 0 0 0 0];

internalField   nonuniform List<scalar> 
146404
(
-3.77939
-1.5346
-7.0185
-2.06524
-7.34694
-3.883
-1.86056
0.242786
0.506141
-10.5535
-0.779853
-4.65988
-1.23762
-7.08233
-3.56046
-2.03942
-3.52363
-2.61665
-2.49676
-5.39524
-3.5179
-6.44928
-4.33196
-2.114
-1.39569
-3.46411
-6.93608
-5.42071
-2.33402
2.65863
-4.45301
-12.8686
-7.39179
-2.15599
3.00295
-2.73648
-10.3111
-5.7001
-2.0452
7.46033
5.766
-15.1644
-2.369
5.9448
-2.68605
-11.6795
-6.62249
-2.59006
4.60635
-1.18944
-6.69457
-4.96042
-2.25659
2.92985
-0.276003
-4.80753
-3.88076
-1.83973
0.126487
0.365368
-3.86413
-3.05562
-1.53152
2.35655
-2.61035
-1.01233
2.31449
-4.01236
-11.943
-5.96125
-2.91985
6.47362
-3.82604
-17.4068
-9.44655
-3.15769
8.74418
-4.98006
-23.5919
-13.9839
-4.06931
10.8473
-2.56112
-18.5032
-11.1312
-4.22141
16.8096
1.72677
-24.1614
-4.64648
14.2056
-5.26237
-21.8664
-12.9578
-5.01337
18.9483
-1.72974
-20.7966
-12.0178
-4.91855
12.2486
1.0967
-12.1018
-8.83075
-3.0346
8.25114
-0.910693
-9.64139
-4.58266
-1.86184
7.18395
0.065012
-8.56604
-0.564134
2.50504
-5.51052
-1.26643
-0.883321
-1.29496
-3.94233
-7.94823
-4.67461
-1.6248
5.17947
-2.39392
-14.7186
-5.15631
-1.98389
12.5326
1.59613
-23.1222
-4.48924
-3.74104
17.7433
-6.32112
-25.4451
-14.8756
-4.07754
25.7834
-23.7717
-36.0571
-23.5101
-6.47358
38.7369
-29.7337
-40.0886
-22.0398
-8.81981
47.8595
10.6781
-39.849
-9.8764
38.3657
-24.6583
-49.0412
-26.8522
-8.3229
26.9595
-20.4628
-48.4281
-24.5969
-6.54318
27.031
0.0277849
-26.5585
-16.4682
-5.83154
19.6703
6.82579
-23.0991
-8.21813
-3.24938
10.3831
1.50356
-11.2866
-5.77471
-2.3995
4.38365
1.40316
-4.41713
-3.56891
-1.67204
2.06784
-1.39221
-2.07441
-2.09375
-2.70872
-3.91498
-6.71212
-4.9214
-2.10103
4.15151
-4.31416
-14.6865
-7.61949
-2.34661
9.83083
-4.36465
-19.7499
-12.3925
-3.63669
31.2329
-1.00784
-39.0984
-13.5975
-5.18984
60.8142
-19.6034
-72.3785
-32.7246
-6.00834
109.817
-110.923
-120.17
-45.5983
-10.8026
116.266
-135.219
-138.84
-43.8718
-17.2661
143.555
-141.102
-35.6187
-25.4447
119.347
-141.875
-155.184
-50.3083
-19.3431
95.8356
-92.9731
-119.574
-54.1558
-17.6913
62.305
-2.90925
-82.1946
-47.8186
-10.6321
36.1309
9.47754
-43.4128
-23.8884
-8.14487
16.281
2.07485
-17.0725
-10.7813
-3.32107
10.0329
0.687154
-8.19414
-6.17753
-2.33914
3.52666
2.3812
-3.40376
-3.78575
-2.04468
-5.59281
-3.95388
-6.97325
-4.07626
-2.06215
2.96043
-5.58957
-10.884
-7.4636
-2.56994
8.30638
-6.19151
-24.163
-11.0817
-3.28469
20.5222
-18.142
-53.1824
-17.6032
-4.13165
65.6585
-127.089
-89.8221
-31.542
-6.87616
148.866
-116.208
-133.861
-46.0326
-13.9546
318.193
441.373
-48.9837
-15.569
387.588
439.764
441.266
417.034
390.582
436.725
440.493
437.235
313.848
377.614
436.237
439.886
428.274
310.787
433.882
-57.6775
-16.5493
181.619
-64.2441
-18.7796
65.5775
-54.0374
-119.883
-40.6105
-9.00091
22.7063
-0.849965
-34.7633
-20.4065
-5.51153
14.7213
4.95141
-17.6237
-13.2421
-3.68041
8.6159
1.07073
-6.87484
-5.55932
-2.55946
1.85007
1.68938
-3.82861
-2.83899
-1.73123
2.31698
-2.55947
-13.4352
-1.93542
-1.07746
5.96732
-4.59128
-16.4909
-7.96769
-2.03384
15.1023
-6.78927
-28.3585
-13.8251
-4.62016
45.9879
-68.9245
-75.2812
-25.9652
-7.68409
147.725
-86.2447
-125.562
-41.9069
-12.2592
381.69
443.821
443.84
-14.8578
419.039
436.665
440.078
412.117
303.646
420.226
433.08
437.279
445.459
333.333
418.733
431.423
437.413
429.36
285.717
414.64
430.88
435.433
420.202
334.078
395.646
431.079
436.368
405.223
296.999
350.487
437.047
438.367
429.553
-16.7288
170.521
-67.8024
-133.367
-57.1991
-22.2333
41.9939
-26.7614
-68.5447
-37.1228
-8.1578
22.992
3.72541
-25.9957
-16.9663
-2.99435
12.9772
4.01683
-14.3925
-8.13363
-1.87455
7.82709
2.86876
-10.6473
-1.72013
-1.14091
2.38208
-3.44062
-11.5386
-4.62532
-2.37668
10.0101
1.27696
-19.0703
-6.29391
-3.70352
30.5131
-19.9635
-6.88706
85.9809
-75.1144
-95.1245
-37.6225
-13.9945
310.688
-117.401
-36.7389
-14.7815
419.942
437.498
442.2
398.645
281.745
423.736
434.069
441.232
383.269
264.881
421.965
430.905
439.918
437.654
301.414
420.228
428.167
435.951
439.962
216.968
418.941
428.546
437.468
463.133
328.998
413.825
428.898
436.517
353.042
307.209
390.605
431.463
432.772
434.955
314.716
303.991
432.162
437.89
-57.5543
-21.3619
85.157
-63.7013
-141.45
-56.818
-12.1422
34.4262
68.6139
-49.1281
-5.35699
16.0849
8.231
-20.0632
-9.37979
-2.78609
7.9939
2.00075
-8.06117
-4.13578
-2.15211
3.52964
-4.37822
-2.63022
-1.42873
-1.85071
-5.02335
-3.59998
-2.61916
3.97592
-3.7254
-12.5613
-6.7522
-2.17235
10.7292
-5.42381
-25.6347
-12.8334
-3.52658
32.7546
-23.4156
-42.274
-24.3866
-7.34725
98.3337
-121.334
-141.198
-40.7321
-14.8563
385.597
442.417
444.231
444.283
-14.9443
423.176
436.298
440.997
395.188
270.332
423.678
432.73
439.958
468.564
216.554
422.302
429.041
431.875
300.865
248.444
417.057
425.107
418.555
351.43
249.294
418.125
425.117
426.105
296.997
241.576
417.197
427.655
435.612
450.195
172.873
403.589
428.195
432.94
417.106
255.431
350.794
435.749
438.881
390.055
317.126
124.513
-84.3021
-142.442
-64.9544
-21.4785
25.9199
-2.94015
-40.5743
-16.783
-5.66884
16.2443
2.24601
-14.2289
-10.5301
-3.5965
9.63556
4.04071
-6.84638
-6.02814
-2.65582
1.76512
3.82042
-1.70549
-2.50296
-2.28555
-8.5053
-1.62146
-4.80035
-3.79123
-2.92924
4.02214
-3.68557
-12.3749
-6.52014
-2.14187
10.7854
-5.50056
-25.8662
-13.2917
-3.72797
30.7269
-29.1735
-52.7206
-30.9628
-8.13881
120.583
-70.4927
-126.289
-49.23
-13.9353
391.697
443.009
443.306
427.017
423.618
436.939
441.469
447.754
335.395
424.471
433.34
447.917
457.909
225.501
420.625
429.223
421.832
342.127
268.231
415.805
424.66
410.603
350.541
260.822
414.797
424.692
418.191
346.108
257.477
418.688
428.512
434.568
466.246
222.509
407.345
429.195
434.296
448.5
254.996
358.119
435.363
437.716
419.353
325.578
140.629
-55.0359
-142.356
-62.3014
-21.4283
24.2247
-3.79549
-33.2116
-18.8022
-5.71068
17.7076
2.31239
-16.7075
-10.7944
-3.64478
10.4644
4.05144
-6.88977
-5.92013
-2.6849
2.18433
4.17046
-1.56041
-2.872
-2.44007
-1.69682
-4.6622
-3.22509
-2.68397
2.02979
-2.05042
-9.14634
-5.68375
-2.13315
10.1013
-1.28413
-18.4461
-11.397
-4.27851
36.046
-10.4756
-39.0205
-22.1334
-8.08127
121.734
-134.972
-124.241
-52.2203
-12.4491
379.286
442.695
443.833
419.052
-12.7302
421.313
437.234
440.863
430.563
276.974
425.194
434.748
444.494
446.863
223.666
424.126
430.955
435.995
327.859
246.694
421.542
427.895
425.259
342.242
264.621
421.91
428.446
432.614
337.222
258.768
418.15
431.198
439.295
447.176
144.28
404.425
432.795
435.654
354.843
267.343
342.155
440.067
438.772
430.481
327.162
107.225
-70.4771
-175.145
-67.1341
-12.5303
34.4124
0.0608251
-41.2286
-25.3818
-5.40021
16.8942
5.17353
-15.3398
-11.3111
-2.86862
8.15649
2.89181
-6.20874
-5.03814
-2.58168
1.5807
3.71352
-1.55668
-2.41353
-2.15115
3.80528
-1.76232
-10.5431
-3.08713
-1.4825
11.5975
0.362105
-18.5041
-1.34317
-2.96394
29.0862
-11.9275
-4.80613
74.5052
-61.0186
-104.136
-43.6567
-10.6853
293.255
-134.288
-56.7691
-17.9945
402.652
438.998
441.881
445.606
296.053
421.58
435.935
441.222
436.577
229.416
423.777
434.261
439.901
450.221
338.722
423.381
435.548
454.244
453.155
241.266
420.195
432.962
439.301
438.159
264.947
413.648
432.812
437.008
376.811
259.749
390.166
437.567
436.842
375.754
303.024
296.011
436.291
440.566
-55.0201
-21.0751
63.9343
-74.8053
-102.24
-49.5943
-7.53066
26.0475
12.9059
-40.8471
-2.62013
13.9006
10.023
-23.0485
-11.2333
-2.14856
7.31065
5.40504
-10.1645
-5.50512
-1.88187
2.90944
-4.59846
-2.68974
-2.12048
0.363749
-4.25886
-12.845
-3.53817
-1.64442
4.85596
-4.722
-12.8245
-7.15538
-2.70018
12.5729
-5.04234
-26.217
-14.7494
-4.56924
35.407
-32.7859
-57.5459
-25.7256
-6.39547
136.664
-70.1207
-127.23
-58.8276
-16.1163
337.171
444.842
445.625
-18.1457
398.251
439.978
441.378
436.527
267.523
411.1
436.033
440.1
453.634
255.142
413.04
436.008
445.013
364.577
174.357
408.136
435.284
438.711
449.174
265.193
390.127
438.734
437.422
409.976
295.542
342.891
440.741
440.705
350.929
-18.0629
96.1643
-133.323
-114.667
-49.818
-6.17445
14.4427
-7.1664
-31.932
-17.0429
-5.13558
8.51784
-3.57048
-22.9627
-13.9035
-3.24367
6.56572
-4.13509
-12.6297
-6.35364
-2.34964
3.72844
-0.83105
-12.0549
-2.77748
-1.29744
-7.75616
-3.32525
-6.1963
-3.74573
-2.13743
0.187961
-3.9227
-7.80846
-5.69849
-2.5311
6.1252
-3.3164
-15.6529
-9.38884
-2.93193
18.73
-5.94085
-25.216
-17.4634
-5.69609
49.8022
-41.3892
-60.3087
-32.7717
-5.82486
120.191
-107.534
-110.575
-60.3578
-17.4155
285.065
441.578
-114.06
-49.9016
-20.9051
357.992
440.692
443.968
400.546
365.853
442.025
444.553
409.981
328.145
356.476
441.833
442.58
429.101
286.795
439.724
-41.4052
-18.0929
96.963
-42.6084
-8.21746
35.7719
-27.9969
-52.0907
-26.5342
-5.73496
8.504
-3.77148
-17.9227
-10.1069
-2.86573
3.35673
-4.06984
-10.8054
-6.36358
-2.18298
1.46768
-2.61312
-7.64095
-5.21918
-2.22817
-2.37707
-1.87942
-5.50934
-3.62446
-2.06589
-3.86754
-3.19995
-5.65796
-4.08891
-1.85068
1.55429
-2.76287
-9.79185
-5.44497
-1.99692
8.45778
-2.7866
-16.4548
-9.34158
-2.7875
24.2862
2.21743
-34.9356
-15.7137
-4.0331
38.3629
-21.4336
-47.7193
-23.5314
-5.73261
53.7344
-103.92
-83.5173
-34.0226
-8.72312
72.1366
-155.859
-86.4654
-34.0846
-13.1226
80.5175
-173.411
-36.5591
-14.4168
73.7714
-150.323
-95.3986
-34.6583
-7.93445
48.0474
-85.5712
-79.4276
-29.8205
-6.57451
32.0928
-16.0235
-55.2588
-28.0308
-4.66773
18.0096
-1.70245
-38.0125
-14.1924
-2.46157
6.65763
-2.11034
-14.8217
-9.33592
-2.15324
1.58578
-2.88196
-8.5588
-5.82324
-2.42448
-1.7548
-2.3134
-5.67333
-4.57947
-2.42734
-1.35763
-3.53267
-7.95204
-4.05194
-1.70733
5.01423
-1.85198
-14.3468
-5.47117
-1.9553
8.65172
-0.982414
-19.4264
-4.19155
-2.91762
8.54825
-2.88693
-17.8761
-9.97195
-3.6189
10.9043
-5.38002
-24.2635
-13.5698
-3.95315
24.305
-8.7857
-32.0323
-20.5095
-4.25421
30.1293
-18.2563
-27.109
-4.43535
12.4124
-13.2246
-34.8812
-12.4028
-4.03569
7.98802
-4.90543
-20.8678
-11.3463
-3.70392
9.63024
-4.08693
-19.7666
-13.0696
-3.17453
6.9761
-0.154357
-21.5987
-8.55797
-1.84824
3.00983
-1.06797
-13.7461
-4.0389
-1.4347
-1.56653
-2.77016
-6.91226
-4.06815
-2.01276
-2.26603
-4.26455
-3.21352
-2.31176
0.904213
2.09698
-0.994156
0.903677
-2.86085
-8.49907
-4.45267
-2.03667
3.68664
-2.27754
-9.69235
-6.60781
-2.75121
4.23493
-3.55562
-12.246
-6.28583
-1.90167
7.64457
-2.175
-14.6053
-9.29137
-1.91284
11.3788
-4.78529
-12.102
-2.24176
4.08431
-5.93698
-16.0865
-6.18661
-2.24548
4.66382
-4.13317
-10.7395
-6.01323
-2.13307
0.993054
-4.28633
-10.3504
-6.57248
-2.63387
-0.623725
-4.50126
-9.78984
-4.86707
-1.88005
0.514365
2.92947
-16.5995
-6.95497
-0.688592
-8.06842
-1.28359
-1.23263
-6.53327
-2.11467
-5.19752
-2.91907
-1.65834
-2.59614
-2.32923
-4.86072
-4.16708
-2.15051
-0.326163
-2.13188
-6.90679
-4.62124
-2.01061
1.35902
-2.56165
-8.74208
-4.68809
-2.04228
4.55907
-5.33885
-5.38751
-1.76408
0.507518
-5.51498
-9.902
-5.28572
-2.15648
-2.59688
-4.81361
-7.41634
-5.13756
-2.25477
-4.1026
-4.13339
-6.62817
-5.02903
-2.49567
-6.30554
-3.78807
-6.44651
-3.83824
-2.12104
-7.33447
-1.71912
-5.94691
-3.17219
-1.90443
-4.62111
-5.501
-1.04611
-0.699958
-7.77959
-3.90173
-8.21692
-4.11504
-2.15745
-4.04988
-2.61641
-5.99964
-6.43178
-4.57835
-3.73238
-2.34244
-1.93451
-0.0904544
-4.68274
3.90081
-6.41432
-5.9195
-13.9038
-6.73307
-4.76789
-14.2292
-5.23105
-3.82634
-2.25439
-4.61527
-0.894961
-1.92904
-0.136915
-0.85199
0.00135782
-4.3867
14.2545
0.246777
0.12089
-0.874713
-6.97489
-7.3907
-4.49181
-13.3252
-0.82092
-3.30613
-2.06044
-0.761124
0.10538
-1.83228
-0.104352
-0.463086
-1.06408
-6.27427
-6.6994
-4.39506
-3.24606
-2.29911
-1.98112
-0.112889
-3.18126
-3.32621
-6.09192
-6.34308
-4.50738
-3.75386
-2.31184
-1.99244
0.038265
-9.31191
-3.30548
-4.78374
-3.19634
-3.37765
-5.88906
-3.35649
-4.60972
-6.14074
-4.57866
-5.54037
-5.17907
-3.86637
-2.42301
-4.503
-3.06238
-2.10857
0.00612626
-2.52039
-0.333964
-4.02319
-2.97774
-1.93433
-2.41776
-3.24334
-4.7101
-3.09205
-5.46814
-5.61275
-5.43253
-6.76292
-6.13526
-4.714
-3.04828
-5.32847
-3.41156
-2.45295
-0.366165
-2.629
-0.453601
-7.41575
-2.05207
-1.63302
-1.91436
-0.521898
-1.13016
-2.20892
-5.70076
-3.00701
-5.12007
-2.87335
-6.16886
-5.33943
-6.58817
-5.2453
-7.43726
-6.68772
-8.84549
-7.77464
-3.47503
-3.41506
-2.4462
-5.00862
-3.58343
-5.56499
-3.73256
-1.73689
-0.187405
-2.19904
-0.787722
-1.92005
-0.60168
-1.78495
-0.58837
3.96199
0.616223
-0.0820148
3.16183
4.27594
-6.60075
-2.70145
-14.1652
-3.10269
-6.89017
-7.24195
-16.8717
-5.57505
-14.3365
-7.10963
-8.4897
-6.79001
-17.548
-9.6723
-2.56237
-1.7919
-1.44254
-4.17496
-3.46565
-2.45185
-0.950259
-0.381026
-1.13179
-0.39359
-2.14951
-0.798495
-0.820073
-0.541234
9.44661
-4.26669
0.260649
5.08701
13.8689
3.23368
2.21276
-1.1609
-6.73977
4.58502
-0.76688
-8.51448
-7.28656
-4.90037
-10.9318
-9.08495
-7.51561
-0.948598
-3.13771
-2.08379
-14.3618
-2.31963
-5.59476
-3.06572
-0.201352
-1.64292
-0.370213
-1.60462
-0.703841
-2.27516
-0.985245
-0.591673
-0.70834
2.393
0.999011
1.72493
0.583404
-6.34646
-0.780001
-3.4751
-2.30468
-6.7848
-2.13066
-4.72953
-5.26768
-3.9464
-3.52404
-8.99748
-7.83176
-6.37253
-5.49378
-2.62263
-2.91149
-2.54188
-4.55681
-2.8698
-4.32546
-2.99113
-0.378159
-2.27041
-0.0585506
-1.91611
-0.690885
-1.98575
-0.79135
2.01407
0.803878
0.928851
0.56374
-3.05107
-1.00535
-2.77621
-0.22201
-2.50468
-3.15292
-4.82728
-4.97837
-3.761
-4.12483
-2.38308
-3.77153
-2.78175
-3.57926
-2.47406
0.00133504
-1.82252
-0.807215
-2.06803
-0.397059
0.442426
0.45381
-1.74544
0.557193
-0.160666
-2.23284
0.46178
-1.91867
-3.45512
-3.76493
-3.18651
-3.07255
-3.3865
-2.29998
-2.46198
-1.88231
-1.94291
-0.315168
-1.5384
-0.294222
-2.47154
0.614506
0.599462
-2.66591
-3.28052
-3.09313
-2.71884
-1.88074
-1.70118
-0.208697
-2.0923
17.7476
-0.0575824
-0.526674
-0.613818
-0.164553
-7.54809
-3.12879
-0.603702
2.50106
-0.965496
-1.2059
-3.29383
-6.5443
-7.99995
-4.699
-9.16611
-6.96345
-5.24597
-8.66818
-10.0821
-7.80425
-3.67443
-2.2356
2.12019
-1.24821
-3.65361
-2.02773
-1.75285
-0.269965
-0.981898
-0.300154
-1.49992
-0.618108
-3.13052
-2.59184
-2.44341
-0.785439
-1.02607
0.221175
-0.927731
-5.83886
-3.60003
-5.27821
-4.13465
-7.75718
-3.76186
-7.0634
-5.37154
-6.73786
-6.50426
-9.41011
-8.10388
-9.21893
-8.32443
-2.62281
-4.67542
-3.45951
-5.05692
-3.279
-5.98609
-4.06182
-0.319368
-1.99978
-0.794094
-2.16907
-0.946077
-2.4936
-0.994754
-7.8839
-7.12306
-17.4628
-2.78326
-10.5292
-0.236332
-24.4623
-8.514
-18.4446
-10.203
-13.5869
-11.2615
-25.1992
-16.4428
-0.486407
-9.71245
1.51991
0.434551
-14.0872
-11.9651
-10.3735
-8.99051
-18.4442
-15.5039
-13.8727
2.17301
0.610044
0.845518
7.03985
4.32609
5.28751
4.05588
0.955365
4.58131
3.75758
5.39558
6.12307
-2.70988
-0.629643
-5.4013
1.9284
-11.4956
-3.81018
-7.47758
-6.29422
-11.4787
-5.30168
-1.88727
-3.66597
-2.14291
-1.43643
-1.66725
-0.304999
-1.49524
-0.636982
-1.4028
-0.428255
5.17091
8.861
4.0971
-13.2249
2.74431
-6.5309
-13.3944
-6.18618
-7.33553
-2.7487
-4.37754
-0.152349
-1.37248
-0.463043
-0.27601
-0.314486
-0.45973
-0.0599907
-4.86576
-3.53962
-3.772
-5.59945
-6.37576
-4.68446
-3.69283
-2.12495
-1.61404
-0.243062
-0.285095
4.35574
-3.21635
-2.94137
0.597062
-0.224106
26.9355
-4.16636
-6.34518
-3.44897
-11.4476
-28.8435
-7.45927
-5.88884
-11.7895
-6.80051
3.35456
-1.12751
-3.17605
-2.00984
-3.01074
-1.96623
-0.912181
-0.39373
-1.32755
-0.484122
-1.42361
-0.639179
-3.23426
-12.1121
-2.34525
-14.3684
-0.193539
-23.6601
-12.4806
-8.40298
-14.2336
-6.61132
-22.2495
-12.2914
-14.9431
-0.286544
-26.3466
-8.20927
-24.6328
-4.13046
-49.4373
-15.8761
-26.7122
-18.7338
-27.4191
-22.8449
-42.5283
-32.9686
0.34587
-17.1197
8.41106
-1.36545
-31.7385
-20.3794
-18.6681
-16.9457
-35.4546
-33.1256
-26.9657
-8.44558
2.83114
-12.973
5.30836
-17.0412
7.40308
-14.3616
-7.98318
-13.0765
-6.05989
-19.2784
-13.9479
-14.9612
-9.12593
10.9794
-0.952734
3.70528
8.49452
8.7074
5.33815
4.78498
2.47673
-5.56293
4.67169
-9.83307
1.24214
-3.80367
-6.77815
-6.93895
-3.71307
-12.303
-8.09653
-6.6082
-5.66085
-0.291861
-1.25901
-0.55466
-4.38424
-1.65013
-2.77986
-1.70291
-0.408091
-0.577653
-0.250178
-1.54495
-0.738841
-1.39634
-0.685804
3.4106
3.56799
3.05438
2.11408
-4.87558
1.8226
-2.82434
1.96506
-0.877445
-2.75952
-4.45945
-3.99507
-1.61257
-2.54185
-0.953498
-3.16467
-1.62944
-2.03297
-2.11504
-0.0942768
-1.47597
-0.352957
-1.85453
-0.136681
-6.86532
-3.97045
-3.69521
-4.54922
-5.17323
-4.58212
-3.99653
-3.02632
-2.49711
-0.330744
-3.77666
-3.31532
-5.02182
-3.70867
-1.92734
-2.46215
-3.9329
-5.0486
-3.88458
-5.00069
-4.04815
-5.97158
-6.31174
-5.51589
-5.55252
-5.02886
-7.3531
-6.70442
-3.83677
-2.82533
-4.2974
-2.9165
-4.85058
-3.41471
-1.80057
-0.738593
-2.31685
-0.358904
-1.9689
-0.744261
-14.6895
-2.80594
-27.3941
-3.87652
-13.6912
0.716074
-26.5851
-9.48355
-24.1764
-16.8474
-16.7005
-14.1482
-27.4146
-18.4949
-24.7443
-5.72131
-22.4367
4.17531
-34.3094
-4.48491
-45.4745
-12.7439
-23.2718
-20.3634
-33.6985
-19.591
-49.5105
-33.6669
-43.5338
-5.14213
-57.8418
-122.818
-140.137
-115.517
-129.107
-32.5866
-49.4194
-36.5158
-79.7865
-48.6878
-106.223
-40.3227
-8.92279
-43.1116
-78.2814
-110.357
-143.301
-38.6773
-43.3963
-34.7601
-40.028
-112.985
-51.9449
-18.873
5.28827
-20.7017
4.35947
-51.4849
48.1495
-25.0229
-23.2426
-19.5068
-59.9385
-46.7653
-43.6073
-21.846
6.01848
-13.8465
18.6372
-42.8798
6.5788
-14.4723
-15.1756
-16.0229
-11.6345
-39.9757
-33.3861
-18.3664
-17.4209
4.16047
-2.98504
2.3154
6.71956
4.99764
3.90925
3.5823
-1.61323
1.83515
-0.405709
2.08728
-2.0867
2.1962
-0.254783
-4.7652
-1.89242
-2.73911
-5.96456
-6.18784
-3.7241
-4.38195
-2.3999
-2.23714
-2.31565
-5.39313
-3.70789
-4.11763
-3.30645
-0.709559
-1.98826
-0.333187
-2.47302
-1.05351
-2.13827
-0.917884
2.12875
2.34385
2.62825
-0.605699
2.1632
-0.83318
-2.42396
-2.69087
-3.5326
-2.29038
-3.57178
-2.62925
-0.0702091
-2.14881
-0.320369
-4.05831
-6.29177
-6.49527
-4.4343
-3.99432
-2.29348
-2.35719
0.380653
-5.46255
-3.70283
-9.10562
-3.76599
-1.96904
-3.05066
-3.80222
-4.9569
-3.82356
-6.11244
-4.26066
-5.8597
-5.53165
-4.96173
-6.31004
-4.49158
-6.97496
-6.27618
-4.24013
-2.9131
-4.03286
-2.31802
-4.49895
-3.11856
-2.34324
-0.360861
-2.11644
0.133926
-1.81051
-0.631759
-39.7675
-7.65056
-61.6601
-37.0559
-69.0727
-98.0352
-139.46
-25.4659
-61.0618
-48.1082
-62.4009
-40.0847
-121.054
-59.2389
-76.3964
-124.846
-144.785
8.11752
-104.279
-164.213
-50.0957
-113.325
-69.9689
-61.7406
-141.545
-66.0902
-147.849
-106.379
-170.204
-149.77
440.087
442.594
-78.4047
-142.316
-59.355
-138.865
-64.2639
441.775
-23.4965
-41.4703
-24.6642
-45.4406
-20.8452
-20.0306
-2.98589
-12.3457
-3.80098
-15.9308
-5.266
-14.6071
-1.52785
-108.233
141.619
-198.434
340.774
435.655
351.149
432.134
-171.054
-197.776
-138.882
441.288
442.371
439.06
441.278
-54.7516
-114.958
-38.4143
441.598
394.598
440.82
371.852
-28.3674
-34.035
-29.5084
424.325
-20.3943
449.168
-5.53088
-24.7659
-6.97501
-16.7088
-2.0622
-6.17968
-146.554
124.495
-164.294
351.496
431.571
343.938
429.721
-170.205
-176.19
438.298
440.844
437.838
440.685
-37.9797
-140.898
-55.9289
440.374
408.318
440.3
365.727
-28.6959
-44.8666
-29.8257
433.752
411.676
-25.9496
-8.01231
-20.5169
-8.64845
-7.24012
-23.4835
-7.59894
-184.491
-83.74
-155.102
438.106
440.784
435.675
-65.1321
-141.573
-83.195
440.273
391.203
-67.0215
-29.6807
-50.7303
-33.1098
422.704
-26.2709
-57.387
-25.7323
-7.25406
-17.1005
-4.83475
-23.8357
-4.56384
-19.129
-2.54834
-133.032
-84.286
-131.247
-134.899
-54.0122
-153.403
-88.6596
-119.993
-85.6428
-127.705
-73.3639
-158.387
-79.1747
39.702
51.6054
39.5154
107.873
11.9251
73.3365
25.5515
-75.8423
22.5283
-58.188
-22.7298
-95.468
-58.8274
-51.7944
-48.5596
-99.4319
-70.0403
-27.3385
-42.5674
-22.0879
-69.1712
-37.7208
-54.5064
-28.3754
-35.5762
3.90193
-16.9012
-15.1308
-50.8476
-2.78922
-29.3606
-36.2272
-24.505
-26.4513
-60.2245
-50.8377
-35.64
-34.3667
2.96564
5.71353
4.20019
2.43618
2.68371
-0.0606002
1.99762
-1.29663
1.83244
-1.58002
-3.97086
-4.82834
-5.17529
-3.03598
-3.58834
-2.97127
-4.44534
-3.26612
-2.90921
-1.99336
-0.846616
-2.03217
-0.796997
-1.58433
-0.425408
1.18608
2.40593
2.03118
-2.05158
-2.92601
-3.17172
-2.44048
-1.77837
-1.78967
-0.167729
-9.75115
-4.49736
-2.14352
-0.253523
-4.44676
-6.68059
-4.66104
-11.412
-6.87488
-4.03969
-11.4584
-4.99517
-3.71477
-1.8064
-1.86155
-1.53471
-2.98667
0.183193
-1.182
-0.271171
-3.45993
-0.898393
-2.01007
-0.755529
-1.41562
1.39671
-0.71687
-6.72208
-4.73281
-7.418
-5.5527
-10.3754
-5.53416
-9.92927
-5.26024
-8.74422
-7.66778
-10.3559
-7.55235
-11.0365
-9.05051
-2.4289
-5.24863
-3.58177
-2.98145
-2.02386
-5.0028
-3.21348
-0.318155
-2.12094
-0.796174
-1.36387
-0.548999
-2.07157
-0.857053
-139.634
-142.737
-149.999
-90.2165
-170.682
444.035
-54.7606
-123.082
-59.9637
-120.878
-67.6075
-52.5204
-146.875
-156.108
444.099
444.559
438.363
442.429
-57.2304
-145.079
-58.0948
444.388
-49.4845
440.608
380.035
-20.6874
-48.406
-21.5537
-40.9951
-19.3521
429.971
319.727
-4.98693
-16.2852
-3.20494
-14.3262
-3.17405
315.745
439.662
442.601
438.875
441.478
436.096
439.601
-59.0406
441.758
468.257
439.354
411.016
438.431
420.139
-20.9755
431.704
411.447
315.562
423.528
347.492
-3.44152
-13.1586
-0.638366
317.019
16.739
277.04
6.2469
441.894
437.981
439.653
433.452
438.179
432.631
436.749
409.484
440.87
351.516
437.978
417.814
437.072
447.65
456.851
360.18
447.091
313.014
450.49
246.812
-0.846215
337.272
-6.42078
247.346
3.59519
306.165
2.83987
438.825
436.924
440.226
431.645
436.023
430.971
435.771
411.702
439.544
397.415
437.034
439.381
435.119
480.665
329.042
417.492
328.325
429.916
299.293
375.533
293.805
-8.1867
-3.72805
298.518
298.608
3.24564
440.409
435.673
439.967
431.962
436.294
434.089
437.206
379.973
439.367
-65.7435
435.668
420.572
435.246
383.152
-55.1467
-23.082
356.376
222.073
416.823
279.084
-2.93539
-18.7492
-2.16117
237.14
3.61223
314.847
-9.1736
439.895
-56.5857
431.705
437.648
437.387
438.862
-68.4499
-77.6758
437.173
557.138
438.079
416.48
-23.4932
-69.0981
-25.6556
410.774
326.462
401.212
-21.2821
-2.38663
-20.2132
-5.28349
305.899
-15.8727
-17.1048
-1.04225
-127.466
-148.268
434.994
439.152
-61.5241
-133.476
-128.732
-93.1276
438.611
416.195
-125.634
-87.4742
-31.5555
-55.6149
-34.465
-22.9664
-58.5417
-42.9461
2.84411
6.27703
5.34637
-2.39093
1.97037
-7.99632
-3.72499
-8.79915
-4.88716
-1.8686
-2.18089
-0.979136
-0.310454
-1.12347
-0.355922
-0.355045
0.754097
0.908041
1.83711
-3.9149
-13.8241
-0.731822
-11.4639
-13.2113
-3.56084
-11.8501
-7.58319
0.61746
-1.26274
-3.98803
-1.83498
-0.906748
-0.26663
-1.52127
-0.512171
1.88002
3.9364
0.87189
3.66766
3.04892
6.54643
6.32218
-13.6251
-3.87249
-15.2388
-0.548424
-11.9517
-1.29687
-19.3866
-4.72487
-15.2318
-9.76931
-12.4555
-8.75167
-20.4604
-5.7792
-1.85263
-6.97755
-2.46274
-6.08381
-1.86981
-0.513976
-2.88119
-16.0655
-5.97732
-20.7714
-3.22577
-21.265
-7.04123
-12.2538
-22.7079
-18.4044
-21.8502
-6.28848
-28.9368
-24.4469
-21.9779
-40.2368
-6.97221
-45.0183
-28.542
-83.5753
-24.1802
-40.7256
-31.844
-41.9822
-32.8394
-76.6417
-42.4241
-100.199
-151.507
-157.173
-64.6396
-107.149
-139.635
-159.121
-46.2402
-114.721
-65.0403
-90.847
-54.8242
-119.07
-52.4077
-159.568
444.062
445.004
-144.484
439.408
443.759
-56.3371
444.646
-49.5055
-123.686
-44.9278
443.047
465.824
-20.3817
-40.3895
-19.0701
-35.2577
-19.1779
413.232
300.02
-3.4368
-14.9759
-3.95439
-14.7674
-2.89538
312.95
-0.0822235
441.73
422.74
442.516
376.753
442.022
387.51
-18.4945
439.182
316.352
356.17
275.975
383.214
155.52
-5.15235
305.72
308.787
-8.25621
287.06
-0.592794
429.057
438.645
363.876
442.025
417.123
439.211
461.789
311.286
422.735
302.82
427.287
272.536
445.464
244.934
3.7424
337.209
5.61037
289.655
-1.64995
227.419
-68.2424
418.003
437.14
445.373
437.931
565.412
436.918
629.611
322.273
449.092
225.077
431.683
250.101
439.426
286.704
0.871233
303.917
5.36455
107.24
280.496
-35.0824
435.106
435.125
419.949
437.848
475.338
437.194
434.047
273.202
367.979
305.888
435.004
12.536
443.675
197.325
269.65
-1.21444
201.368
-68.1641
379.651
435.972
447.88
436.753
453.37
436.408
425.314
277.358
427.65
299.599
457.548
238.624
389.821
240.607
2.02489
338.239
-6.03741
175.044
274.611
-1.32965
416.492
438.054
414.326
436.007
214.019
434.214
415.737
293.867
422.904
407.039
163.028
436.36
287.244
-23.1405
0.800738
278.625
2.57145
257.726
4.43063
439.151
-51.0461
-136.851
435.389
435.489
433.338
438.856
425.802
-128.263
-78.346
434.812
415.91
437.774
-21.7869
-60.0259
-31.6769
437.207
287.916
-60.3801
-28.7181
-0.667159
-22.8968
-2.60018
317.439
-0.552835
-23.3326
-3.15617
-142.609
-110.851
-167.946
432.33
-101.042
-194.341
-89.7853
-140.448
-96.5025
-70.2893
-163.936
-84.6769
-36.5857
-56.1664
-35.4166
-61.0454
-32.7112
-50.1778
-36.5768
-60.0113
-2.30575
-29.0549
-67.0916
-138.974
8.9319
-55.5447
-56.8029
-38.2467
-37.1199
-116.414
-60.4879
-52.7804
-45.4358
-17.7493
2.69654
-13.8299
17.6983
-48.7322
9.6499
-23.3996
-15.9868
-13.5129
-45.8064
-36.9643
-22.6128
-12.5315
5.40015
-9.76439
4.89917
-26.4133
7.42379
-11.7827
-11.5329
-10.2027
-6.14601
-23.7426
-18.1137
-13.772
-9.01744
7.8299
8.72356
8.90304
1.14107
5.30759
-10.8008
5.98968
-8.5599
4.10227
-4.7745
-5.84936
-10.4452
-7.7323
-6.37274
-4.40789
-0.503982
-5.21162
-0.847473
-2.25732
-0.950759
-0.615516
-0.971531
-0.593719
-0.825612
-0.366972
5.0161
3.93886
-4.2472
-5.09456
-3.74975
-2.69042
-1.26377
-1.07413
-0.207321
0.414102
-0.0169716
-1.90036
-0.803404
-0.95707
-3.4301
-7.11198
-1.83113
-4.65744
-2.71769
-5.54868
-8.56735
-6.92762
-5.18431
-4.32993
-7.69248
-6.76926
-3.50501
-2.13293
-3.63877
-2.80329
-4.58479
-3.26782
-1.49709
-0.676015
-2.47299
0.239404
-2.10656
-0.87384
-11.0205
-0.784453
-15.1728
-2.15859
-6.51852
-2.44446
-8.97788
-9.41646
-15.7322
-9.59393
-9.73586
-9.12328
-12.9722
-11.3744
-17.9205
-1.30098
-12.6927
-5.0281
-20.4763
-10.8074
-18.1087
-16.4831
-25.3772
-21.4318
-31.9887
-89.4923
-9.37632
-37.2791
-65.0776
-110.865
-82.4844
-40.0243
-38.2003
-29.6885
-89.9247
-47.2897
-29.1533
238.559
-138.317
115.92
-95.7173
315.966
439.213
-106.226
-150.425
-149.983
-134.815
-146.949
442.507
445.33
-47.5278
-125.432
-47.4833
-117.94
-52.5858
444.689
-27.2401
-33.1263
-20.6314
-41.9476
-28.4426
-22.0641
-4.53522
-15.8004
-5.93954
-13.4489
-4.2631
-15.8691
-2.98712
-142.021
441.381
442.876
442.923
445.28
439.375
442.331
-44.3385
442.563
407.945
444.322
428.402
441.247
427.84
-18.9244
412.416
299.72
436.75
-18.9459
434.451
223.405
-2.86824
300.446
11.7875
-15.5156
-2.24324
276.711
-0.362464
563.727
440.755
430.923
441.244
362.647
440.65
364.414
273.774
418.603
258.801
422.875
284.517
451.565
122.913
2.84404
319.299
315.771
3.73618
262.008
-100.319
388.313
442.314
423.645
440.934
443.251
435.584
504.749
200.363
445.738
257.169
443.65
180.917
412.941
170.547
-0.355121
383.012
-26.5354
220.306
341.342
589.835
436.105
604.316
433.268
444.949
425.892
381.217
205.509
441.429
218.294
349.656
170.913
345.257
265.103
-30.5457
238.911
-28.2155
236.291
258.126
462.241
423.391
419.137
422.639
418.51
423.373
418.977
421.535
434.594
428.034
434.889
425.628
424.331
425.787
429.061
483.563
436.54
505.173
425.985
380.813
426.221
360.607
183.218
460.99
77.9391
346.39
265.827
280.339
261.747
179.73
258.554
424.499
255.828
653.187
464.448
438.171
213.57
430.206
399.009
434.274
441.107
215.214
401.819
224.512
273.013
209.559
448.872
246.497
396.301
1.21049
226.322
618.042
266.318
385.2
433.433
417.066
434.814
560.594
433.517
405.464
197.161
433.17
327.134
447.319
241.881
429.529
202.59
-21.0112
284.08
-3.40596
315.707
236.111
-2.39351
435.053
436.014
438.478
429.923
433.81
435.672
437.295
444.685
437.666
433.028
449.382
436.336
364.168
303.698
-27.723
429.587
232.041
347.072
297.347
-6.63603
-23.0332
-3.02573
259.719
-19.7564
299.179
-2.37085
421.208
169.952
-31.3052
333.886
424.313
187.974
-78.8778
438.644
-130.981
-199.58
437.529
438.816
-94.7661
-189.423
-63.2925
-163.634
-63.9935
437.597
331.889
-160.209
-74.0737
-30.1348
-56.8702
-36.6281
394.252
303.748
-62.0469
-34.0514
-3.68755
-21.133
-7.12964
-2.84547
-22.7387
-7.32556
-157.04
31.872
-90.6338
-177.118
0.550145
-67.6188
-64.0453
-46.7875
-151.394
-82.5733
-73.2786
-52.7021
9.15078
-25.7017
7.94095
-40.6182
2.19754
-16.3815
-24.5468
-20.3273
-45.3504
-35.0575
-24.4087
-23.8133
-16.7476
4.48572
-9.56392
4.31357
-8.01324
3.77388
-4.36317
-15.0115
-11.2938
-9.19489
-15.3941
-15.5872
-10.5064
-10.7297
6.92233
1.30923
4.8783
8.25291
6.61376
3.75498
4.22499
-4.64202
3.02354
-3.67223
2.90844
-2.51496
3.21769
-0.806988
-7.25915
-5.188
-4.4264
-6.55119
-6.79332
-2.54358
-3.74064
-2.82807
-2.89794
-1.84916
-5.11025
-3.68914
-3.29146
-2.64443
-1.06356
-1.48063
-0.397048
-2.18
-0.867575
-2.10817
-0.358333
4.38158
0.914854
4.06268
-3.5967
3.67572
-1.00858
-3.49749
-1.96272
-2.82371
-1.67926
-2.60347
-2.51418
-0.221084
-2.24726
-0.210115
-3.88525
-4.73746
-3.79527
-3.28133
-3.5002
-3.11003
0.239911
-1.89121
-0.274503
-0.817029
-8.49121
-1.80673
-0.0279312
-0.684546
-4.50608
-2.19633
-4.90749
-1.61553
-3.93462
-2.02214
-4.56122
-4.24008
-7.53976
-6.84556
-4.95322
-4.50365
-7.28181
-6.8123
-2.93874
-5.20027
-3.82438
-3.77275
-3.58078
-5.42427
-4.12468
0.198002
-2.43191
-0.988602
-2.93229
-0.347436
-2.66151
-1.05409
-170.759
442.944
445.19
-67.4465
-150.474
444.413
444.576
-53.5006
444.512
-130.386
-64.665
444.191
437.206
-24.9098
-21.2095
-49.1199
-21.3925
442.606