/*--------------------------------*- C++ -*----------------------------------*\
| =========                 |                                                 |
| \\      /  F ield         | OpenFOAM: The Open Source CFD Toolbox           |
|  \\    /   O peration     | Version:  4.0                                   |
|   \\  /    A nd           | Web:      www.OpenFOAM.org                      |
|    \\/     M anipulation  |                                                 |
\*---------------------------------------------------------------------------*/
FoamFile
{
    version     2.0;
    format      ascii;
    class       volScalarField;
    location    "40";
    object      p;
}
// * * * * * * * * * * * * * * * * * * * * * * * * * * * * * * * * * * * * * //

dimensions      [0 2 -2 0 0 0 0];

internalField   nonuniform List<scalar> 
146404
(
-4.13198
-1.68045
-6.98307
-1.92821
-7.86088
-4.40783
-2.22929
0.568101
0.825536
-12.8874
-0.758184
-4.26013
-0.286356
-6.94979
-3.87326
-2.27854
-3.37859
-2.86019
-2.76705
-5.40742
-3.20486
-6.60961
-4.84233
-2.47858
-1.40533
-3.36876
-7.14147
-5.82068
-2.72444
2.66872
-4.60055
-13.4237
-7.81508
-2.32584
3.10322
-2.64852
-10.8976
-6.29173
-2.34447
7.76021
6.17898
-16.5472
-2.55632
6.50511
-2.10442
-11.4201
-6.80105
-2.77609
5.12158
-0.484275
-6.39533
-5.07908
-2.676
3.6689
0.772829
-4.59731
-4.29452
-2.28996
0.988355
1.79673
-3.87066
-3.511
-1.94182
2.12364
-3.85195
-1.47971
2.28322
-3.88529
-12.2366
-6.66933
-3.3464
6.58369
-3.95667
-18.5684
-10.262
-3.54337
8.79075
-5.11249
-25.5285
-15.0589
-4.44522
10.9164
-2.56108
-19.99
-11.9439
-4.88344
17.3103
1.72372
-26.3429
-5.19624
14.9678
-4.72661
-22.4348
-14.1199
-5.55401
19.8305
-1.61178
-21.9952
-13.3252
-5.50503
13.2352
1.58123
-12.2285
-9.3703
-3.60889
9.25597
0.189183
-9.27234
-5.27435
-2.56576
8.03347
1.78575
-9.48974
-1.22495
3.78347
-5.25146
-2.25326
-1.70412
-1.6127
-3.99714
-8.37909
-5.28789
-1.92777
5.01764
-2.54717
-15.1287
-6.08057
-2.46733
12.5985
1.76428
-23.2908
-5.41934
-4.23378
17.8496
-6.5221
-26.479
-15.908
-4.78602
25.3908
-24.3806
-38.4931
-26.7159
-7.43192
38.9858
-29.863
-44.6328
-24.1098
-9.88435
48.8063
10.152
-44.6124
-10.9408
39.3874
-23.4142
-51.9865
-29.5577
-9.63938
28.8754
-20.436
-49.6592
-26.489
-8.08792
28.3914
0.699855
-27.7254
-18.5829
-6.84289
20.9276
7.90463
-22.8106
-9.04225
-4.22501
11.3748
2.42131
-11.1922
-6.54632
-2.97085
5.19177
2.3661
-4.17142
-4.04467
-2.23191
3.12906
-1.20737
-2.42115
-2.25204
-3.13687
-4.23473
-7.23322
-5.37376
-2.48306
3.68117
-4.9498
-15.687
-8.15556
-2.59172
9.69335
-4.93404
-21.2423
-13.2614
-4.17185
31.7636
-1.42059
-41.5228
-15.2142
-5.82825
61.6222
-18.2125
-77.4996
-36.7187
-6.62018
109.088
-96.0908
-128.06
-52.4641
-12.2836
116.678
-124.146
-152.27
-50.2966
-19.8521
145.116
-135.034
-41.4346
-30.1351
120.918
-132.903
-165.652
-58.4221
-23.4137
98.3344
-76.8013
-128.425
-61.3005
-20.5814
64.5968
1.06425
-88.5733
-55.8522
-12.2995
37.5841
10.6071
-44.6447
-27.2222
-8.99949
17.1601
2.91002
-17.4837
-11.8488
-3.80695
10.8036
1.41716
-8.19093
-6.59983
-2.63944
4.22572
3.2874
-3.11281
-3.99881
-2.25986
-6.15323
-4.12158
-7.61795
-4.50378
-2.3569
2.38271
-6.19365
-11.5847
-8.10907
-2.86716
7.65595
-6.63647
-25.9846
-11.5147
-3.51851
20.5517
-20.0663
-60.0558
-18.7143
-4.53211
66.1062
-122.598
-104.864
-35.8949
-7.40438
150.833
-111.122
-146.332
-52.9221
-14.3317
318.515
442.026
-55.9259
-15.9548
388.326
440.618
442.354
417.942
391.658
437.642
441.63
438.153
314.549
378.715
437.122
440.91
429.136
312.09
435.085
-65.5948
-20.6694
184.028
-77.6262
-22.8161
67.9021
-49.4989
-124.867
-49.2348
-10.7452
23.4328
0.292905
-36.2232
-22.9582
-6.20187
15.3598
5.73651
-17.9034
-14.1766
-4.27123
9.23599
1.71468
-6.67268
-5.80133
-3.04363
2.39523
2.51709
-3.83411
-3.01852
-2.16857
1.69034
-3.03046
-13.9784
-2.72202
-1.56403
5.41154
-5.22942
-17.1908
-8.52258
-2.5117
14.6339
-7.32027
-30.5628
-14.7537
-5.08147
46.3499
-72.8198
-84.5149
-28.3198
-8.11284
147.036
-81.1358
-137.852
-46.7178
-12.3516
382.421
444.618
444.844
-15.3068
419.979
437.542
441.087
413.218
304.583
421.185
434.017
438.366
446.198
334.3
419.773
432.507
438.51
430.805
286.651
415.726
431.952
436.592
421.394
335.41
396.778
432.187
437.552
406.164
298.313
351.651
438.105
439.575
430.374
-22.1655
170.042
-69.3492
-135.51
-63.4337
-24.4122
43.3641
-24.3556
-73.5615
-42.3063
-8.79839
23.6094
4.1988
-26.8478
-17.9823
-3.80129
13.5264
4.49019
-14.0161
-8.73625
-2.47765
8.2808
3.50324
-10.515
-2.10958
-1.5103
1.78291
-3.91228
-12.1691
-5.43503
-2.70725
9.47313
0.828519
-20.1982
-6.62219
-4.1409
30.3304
-21.332
-7.46271
86.9483
-74.0914
-106.331
-40.528
-14.6348
311.325
-133.917
-42.6789
-14.9717
420.856
438.359
443.091
399.502
281.754
424.584
434.994
442.194
384.815
263.239
422.835
431.752
440.968
437.998
305.1
421.183
429.054
437.064
441.007
215.91
419.972
429.638
438.617
464.445
325.451
414.889
430.004
437.713
354.405
306.676
391.704
432.61
433.977
435.685
316.363
304.551
433.345
439.022
-65.7746
-27.8708
86.6417
-62.2071
-155.319
-63.6331
-13.443
35.1732
69.2363
-54.4892
-6.13251
16.5688
8.97522
-20.3278
-10.1933
-3.39982
8.35183
2.56305
-8.12063
-4.66194
-2.5826
4.02683
-4.47859
-2.81758
-1.64821
-2.49117
-5.77259
-4.06457
-2.79994
3.38817
-4.18495
-13.6562
-7.52264
-2.48428
10.3477
-6.17234
-26.9201
-13.2282
-3.87785
32.1446
-25.427
-46.2717
-25.4035
-7.41518
99.2962
-108.67
-158.799
-45.1724
-14.8299
386.515
443.374
445.217
445.022
-15.2611
424.066
437.188
441.913
395.588
270.866
424.477
433.5
440.922
469.457
209.896
423.061
429.637
433.357
303.263
246.922
417.907
425.905
419.6
353.156
251.846
419.02
426.048
427.687
298.316
241.013
418.24
428.787
436.783
450.918
169.668
404.668
429.338
434.14
418.477
256.496
352.017
436.717
440.023
391.206
318.457
126.303
-75.9475
-154.716
-73.5156
-26.5995
26.35
-2.21835
-43.9284
-19.6283
-6.94835
16.4771
2.27462
-14.9379
-11.492
-4.09357
9.80077
4.31533
-7.03304
-6.51242
-3.05875
2.04785
4.05147
-1.81589
-2.72401
-2.52312
-9.08538
-2.40684
-5.51524
-4.28471
-3.21445
3.40194
-4.29756
-13.4485
-7.3259
-2.48836
10.3157
-6.3547
-27.2474
-13.7893
-4.05945
30.8862
-31.2421
-59.7401
-33.7525
-8.14362
120.625
-68.5528
-136.61
-53.077
-15.2158
392.514
444.073
444.186
427.551
424.442
437.816
442.373
448.073
339.212
425.126
433.95
448.724
457.656
221.983
420.951
429.715
422.333
343.386
270.339
416.304
424.934
411.404
349.608
263.049
415.743
425.572
418.235
348.234
258.642
419.612
429.45
435.657
465.76
220.421
408.367
430.217
435.395
449.44
255.503
359.116
436.264
438.68
420.817
326.309
141.327
-51.798
-149.653
-71.6077
-27.8324
24.6039
-4.52552
-36.71
-22.9776
-7.37448
18.0395
2.34512
-17.5627
-11.9723
-4.24006
10.6812
4.23295
-7.29634
-6.5964
-3.10838
2.39982
4.26641
-1.7974
-3.27389
-2.8822
-2.31419
-5.39957
-3.84236
-2.76206
1.54722
-2.56435
-9.92966
-6.54879
-2.48832
9.65642
-2.01493
-19.6915
-11.7831
-4.74606
35.7138
-11.4269
-42.6771
-24.4746
-8.48724
121.781
-120.839
-140.952
-58.4165
-12.3087
380.023
443.313
444.824
419.381
-13.8607
422.088
438.109
441.779
431.604
276.698
425.862
435.478
445.353
447.691
219.055
424.537
431.357
436.656
330.116
244.93
421.167
428.105
425.8
343.149
266.953
422.494
428.982
433.604
337.971
258.754
419.014
432.079
440.35
447.709
143.785
405.299
433.677
436.67
356.548
267.665
343.001
440.767
439.969
431.045
328.006
108.403
-61.3994
-182.348
-79.0726
-14.8198
35.2831
0.0287521
-44.482
-28.881
-6.60198
17.1627
5.34852
-15.9221
-12.5902
-3.56287
8.36766
3.16443
-6.50484
-5.69176
-3.09689
1.74045
3.96222
-1.92964
-2.87207
-2.3925
3.42431
-2.05534
-11.3771
-4.02514
-1.86088
11.3652
-0.200177
-19.4426
-2.03677
-3.61566
29.0605
-11.9802
-5.58079
75.2598
-57.5981
-114.674
-48.3358
-11.4672
293.277
-145.339
-64.9046
-19.5003
403.278
439.75
442.875
446.288
296.5
422.285
436.646
442.109
437.74
228.7
424.484
435.002
440.802
451.257
337.781
424.158
436.403
455.079
453.769
238.044
420.969
433.779
440.298
439.29
263.528
414.454
433.69
438.053
378.559
259.782
390.963
438.401
437.779
377.897
304.859
296.134
437.551
441.41
-63.6312
-26.0823
64.495
-71.6719
-116.563
-57.9532
-8.80452
26.4449
11.8894
-44.3854
-3.70214
13.9745
10.5542
-23.5682
-12.5616
-2.82268
7.3734
5.81104
-10.3792
-6.41184
-2.40984
3.36192
-5.14175
-3.09139
-2.36304
0.280858
-4.03647
-13.2844
-4.28999
-1.96991
4.9238
-4.69238
-13.2347
-7.73399
-3.13525
12.7236
-5.21634
-28.1583
-16.199
-5.03574
35.2892
-32.7797
-65.1415
-30.1429
-7.41906
135.839
-61.4102
-131.652
-66.2797
-17.4882
337.562
445.504
446.445
-19.3439
399.003
440.718
442.283
437.203
268.469
411.857
436.76
441.045
454.702
256.494
413.834
436.797
445.943
365.597
176.992
408.872
436.127
439.678
449.793
265.894
390.883
439.553
438.457
410.844
296.946
343.565
441.427
441.608
351.42
-18.3581
95.1596
-122.208
-124.446
-58.645
-7.48144
14.51
-7.90127
-35.0792
-19.1412
-5.87257
8.48827
-3.6449
-24.7655
-15.4936
-3.95052
6.48758
-4.31086
-13.1659
-7.22737
-3.03914
3.67377
-0.780876
-12.4979
-3.58699
-1.82613
-7.71934
-3.06081
-6.66997
-4.33493
-2.48068
0.367923
-3.75135
-8.10487
-6.16147
-2.90655
6.28311
-3.05773
-16.5264
-10.053
-3.12815
19.4751
-6.07493
-27.4095
-19.7114
-6.31977
51.1357
-39.2954
-67.0973
-36.8248
-6.58929
122.647
-93.9821
-126.539
-67.8959
-18.7121
285.309
442.454
-120.088
-55.3678
-22.4019
358.949
441.669
444.919
401.126
366.664
442.777
445.534
410.616
329.352
357.126
442.632
443.55
429.852
287.359
440.554
-48.0169
-17.2591
98.4439
-49.2977
-8.62929
37.1851
-29.0493
-57.5099
-30.2027
-6.30366
8.39483
-4.16625
-19.2553
-10.957
-3.2028
3.20115
-4.50217
-11.5474
-7.02521
-2.55189
1.32078
-2.87683
-8.11677
-5.78841
-2.66313
-2.52251
-1.83161
-6.24836
-4.25307
-2.51062
-3.64835
-2.80625
-5.76632
-4.43664
-2.17726
1.83495
-2.51409
-9.99715
-5.9232
-2.26109
8.8609
-2.50067
-16.994
-10.5028
-3.27597
24.9719
3.09654
-36.2905
-16.815
-4.63044
39.136
-22.7987
-51.5828
-26.1894
-6.49269
53.6849
-99.0539
-91.6151
-38.8462
-9.58742
74.3323
-153.365
-96.1056
-38.327
-14.2877
82.3412
-160.228
-42.1642
-15.1748
75.1413
-142.872
-108.478
-40.1771
-8.22646
49.2201
-85.9987
-86.7955
-34.3149
-7.21556
32.8258
-16.1691
-58.7262
-30.7607
-5.32348
18.2451
-1.7876
-40.0536
-14.9013
-3.22679
6.61881
-2.46196
-15.7122
-10.2089
-2.63895
1.50862
-3.09894
-9.11669
-6.50938
-2.89716
-1.89042
-2.46507
-6.14101
-5.14029
-2.81769
-1.11175
-3.13225
-7.9961
-4.55165
-2.06328
5.2773
-1.43928
-14.3999
-6.14086
-2.44894
8.96117
-0.910723
-19.762
-5.12487
-3.26841
8.80044
-3.0649
-19.0349
-10.8008
-3.94492
11.2304
-5.53422
-25.7553
-14.2608
-4.32244
24.5585
-8.93882
-34.1936
-21.5445
-4.87089
30.6386
-18.4413
-29.5536
-4.93169
12.762
-13.9319
-37.4574
-13.2342
-4.39657
8.11823
-5.02137
-22.3161
-12.2368
-4.03392
9.96009
-4.07572
-20.6143
-13.9625
-3.65502
7.19944
0.133438
-21.8245
-8.98648
-2.37006
3.0579
-0.89657
-14.1767
-5.03708
-2.07358
-1.58142
-2.49853
-7.22947
-4.82729
-2.65285
-2.01756
-4.79162
-3.77632
-2.67014
1.16821
1.49066
-1.22529
1.17051
-2.56656
-8.79702
-5.00377
-2.47859
3.86744
-2.19948
-10.1001
-7.02239
-3.08127
4.36641
-3.49216
-12.6306
-6.685
-2.11567
7.88462
-1.94437
-15.2173
-9.80561
-2.28336
11.6149
-4.42086
-12.3044
-2.52489
4.08387
-6.20673
-17.0258
-6.61857
-2.49956
4.81674
-4.1456
-11.0992
-6.46505
-2.41851
1.25163
-4.04396
-10.5629
-7.08893
-3.04763
-0.354641
-3.926
-9.90004
-5.53638
-2.36055
0.642849
3.55905
-16.6001
-7.59998
-1.2086
-8.4285
-2.145
-1.6833
-6.20157
-1.74141
-5.7427
-3.30783
-2.13897
-2.37254
-2.04014
-5.09248
-4.47271
-2.39629
-0.200095
-1.96047
-6.99578
-4.97716
-2.31013
1.51735
-2.31324
-8.92826
-4.97884
-2.34044
4.65664
-4.77063
-5.9746
-2.11974
0.550384
-5.32456
-10.0261
-5.61103
-2.46273
-2.47937
-4.49861
-7.49403
-5.59544
-2.57193
-3.87283
-3.63165
-6.75871
-5.42503
-2.76314
-6.05552
-3.17346
-6.6103
-4.29592
-2.36731
-7.13222
-1.2145
-6.13576
-3.44821
-2.0605
-4.4493
-4.93561
-1.45274
-0.85119
-7.68915
-3.27236
-8.61897
-4.45321
-2.20306
-4.14782
-2.85374
-6.37448
-6.84542
-5.01085
-4.21897
-2.65518
-2.24595
-0.0930539
-4.45561
4.8357
-6.89856
-5.53857
-14.4355
-7.24468
-5.17707
-14.9279
-6.04285
-4.2596
-2.5335
-5.40295
-0.8951
-2.18518
-0.16547
-0.858536
-0.03015
-4.09533
15.1977
1.35057
0.531221
0.156393
-6.78143
-7.28964
-4.84756
-15.1119
-0.838208
-3.62953
-2.26989
-0.778193
0.0730581
-1.98553
-0.0919421
0.600855
-0.195734
-6.03823
-6.59513
-4.7059
-3.54724
-2.41847
-2.12189
-0.110619
-2.79941
-3.01125
-6.19226
-6.52684
-4.99521
-4.19181
-2.76713
-2.38718
-0.00572413
-9.3292
-2.90758
-4.77003
-2.88473
-3.05141
-5.96521
-3.08378
-4.78048
-6.32762
-5.05317
-5.82755
-5.51277
-4.29873
-2.81896
-4.84759
-3.5174
-2.45214
-0.0461153
-2.90025
-0.429524
-4.03258
-2.68363
-1.9607
-2.3091
-2.98597
-4.8401
-2.99506
-5.60138
-5.88539
-5.82007
-7.01286
-6.55125
-5.07817
-3.47457
-5.77008
-3.8044
-2.77313
-0.43762
-2.9199
-0.534104
-7.39499
-1.81626
-1.65507
-1.89022
-0.512648
-1.09398
-2.10587
-6.08961
-2.9965
-5.23344
-2.82916
-6.295
-5.7473
-7.00717
-5.71148
-7.77252
-7.16451
-9.20757
-8.34851
-3.68614
-3.99594
-2.96727
-5.51565
-4.0265
-6.16726
-4.26924
-2.20106
-0.175505
-2.41867
-0.853154
-2.28187
-0.73882
-1.45492
-0.295737
4.76353
0.713793
0.108478
3.37489
4.80226
-7.01945
-2.42904
-14.7081
-2.90817
-6.97974
-7.13849
-17.3918
-6.11566
-15.0298
-7.66493
-9.03238
-7.46875
-18.3107
-10.4473
-2.9627
-2.26022
-1.45661
-4.80416
-4.01751
-2.94531
-1.26151
-0.454458
-1.15131
-0.434337
-2.55253
-0.98964
-1.27238
-0.691401
10.3076
-3.85676
1.30774
5.43725
14.3966
3.68842
2.83091
-0.141965
-6.44795
5.00723
-0.0820802
-7.8234
-7.16557
-5.30783
-12.0149
-8.64169
-7.808
-0.982934
-3.5003
-2.37158
-15.784
-2.55444
-5.99046
-3.41076
-0.260117
-1.85281
-0.263946
-1.95746
-0.848467
-2.53522
-1.11883
0.505032
0.464242
2.90656
1.60352
2.27555
1.2227
-6.01551
0.40103
-3.1692
-1.48361
-6.00675
-1.31881
-3.97767
-5.55699
-3.7956
-3.75372
-8.67033
-7.87564
-6.06254
-5.52893
-2.81971
-3.12563
-2.74668
-4.80269
-3.2663
-4.66078
-3.51139
-0.377815
-2.48024
-0.0964885
-2.27926
-0.904196
-2.39501
-0.97834
2.55941
1.6127
1.54882
1.70654
-2.72341
0.0211938
-1.9657
0.983921
-1.89929
-3.37392
-4.49642
-5.05188
-3.43959
-4.31241
-2.64805
-4.08847
-3.27682
-3.91197
-3.02955
-0.0282687
-2.24413
-0.962729
-2.55228
-0.462476
1.12249
1.69806
-0.984592
2.13976
1.10976
-1.71036
1.91839
-1.61025
-3.22354
-3.99766
-3.14717
-3.53612
-3.73079
-2.80433
-2.93261
-2.32986
-2.38368
-0.405302
-1.88223
-0.361402
-1.66236
2.25261
2.07155
-2.50389
-3.26949
-3.50986
-3.10921
-2.29501
-2.05028
-0.269341
-2.38327
18.4137
-1.03558
-1.25783
-1.16177
-0.230973
-7.58981
-2.73282
-0.838677
2.93891
-1.04771
-1.04937
-2.97636
-6.64822
-7.48327
-4.30498
-8.95857
-7.14847
-5.7316
-9.43356
-10.2618
-8.30518
-4.19595
-2.73348
1.34758
-2.06272
-4.38475
-2.73438
-2.1529
-0.321045
-1.55303
-0.369714
-1.99744
-0.820138
-2.74184
-2.56109
-2.27956
-0.803976
-0.900622
0.233773
-0.82037
-5.93385
-3.38162
-5.22602
-3.86256
-7.63673
-3.63493
-7.10234
-5.84511
-6.95542
-6.95861
-9.53515
-8.56068
-9.49627
-8.75492
-3.11978
-5.18628
-4.01695
-5.7102
-4.00125
-6.51553
-4.67144
-0.349098
-2.40239
-0.946949
-2.69775
-1.17796
-2.93491
-1.2096
-8.12476
-6.68037
-18.0575
-2.78999
-11.0643
0.0321704
-25.7932
-9.26801
-19.2785
-11.0961
-14.519
-12.3032
-26.5853
-17.494
0.100765
-9.11311
1.52809
1.02042
-13.9436
-13.1862
-9.97086
-9.19463
-19.7532
-15.5759
-14.4814
3.13659
1.43257
2.34011
7.90294
5.15044
6.22844
5.0923
2.52616
5.52416
4.89244
6.25209
7.50492
-2.47118
0.581478
-4.6505
3.4145
-10.9258
-4.23322
-7.37053
-6.65561
-11.2564
-5.94042
-2.38111
-4.32326
-2.84545
-2.10416
-2.53027
-0.373608
-2.03484
-0.879297
-1.9496
-0.477391
6.02156
10.3492
5.61528
-12.796
4.01312
-6.20415
-13.1757
-6.86028
-7.11775
-3.65057
-5.22942
-0.999832
-2.36208
-1.21967
-0.928691
-0.368467
-1.12808
-0.16579
-5.19081
-3.24683
-3.58015
-5.92962
-6.86389
-5.47936
-4.34638
-2.87832
-2.19061
-0.342786
-0.576014
4.75823
-3.55125
-2.73572
0.309875
-0.264941
27.3894
-3.91412
-6.48052
-3.44
-11.5546
-30.8738
-7.95952
-6.73209
-12.1607
-7.75259
2.60751
-1.92123
-4.00562
-2.79193
-3.92616
-2.72873
-1.42899
-0.457889
-1.81926
-0.673733
-1.88265
-0.814292
-3.03256
-12.0163
-2.34562
-14.5053
-0.114391
-23.8137
-12.6475
-9.08167
-14.6758
-7.61694
-22.3853
-13.1071
-15.816
-0.019735
-27.7312
-8.20511
-26.1703
-3.75261
-52.6309
-17.3824
-28.2654
-19.9323
-30.0288
-25.0571
-45.5484
-35.6483
0.809536
-17.2135
8.00963
-0.264607
-32.8436
-21.8055
-18.9939
-17.9967
-38.6548
-34.9837
-29.4772
-7.8171
4.33506
-12.2827
6.37802
-16.3906
8.45197
-13.9854
-8.45632
-12.5767
-6.82003
-18.8458
-14.6939
-14.9528
-10.2954
12.4899
-0.214244
5.19841
9.39567
9.80141
6.20108
5.88858
3.82813
-5.15085
5.71944
-9.28621
2.46641
-3.01738
-7.57928
-6.8568
-4.51153
-12.1426
-9.12817
-6.49005
-6.12433
-1.26594
-2.37012
-1.56445
-5.42916
-2.65862
-3.68779
-2.77268
-0.656729
-1.27082
-0.343146
-2.20164
-1.00196
-2.20541
-1.02754
4.84663
4.38905
4.21217
3.3182
-4.36706
2.99271
-2.25513
3.09883
-0.576591
-3.5522
-4.20005
-4.3867
-1.44337
-2.89277
-1.95115
-3.79116
-2.65041
-2.38141
-2.45109
-0.164278
-2.30951
-0.489352
-2.17418
-0.159324
-7.2882
-3.996
-3.71278
-5.12195
-5.82372
-5.20256
-4.53946
-3.38642
-2.69957
-0.321712
-4.11277
-3.23319
-5.44324
-3.81621
-2.31087
-2.75326
-3.92593
-5.27603
-3.97251
-5.44931
-4.27926
-6.34225
-6.83019
-6.24852
-6.08829
-5.6323
-7.8839
-7.32418
-4.45815
-3.44453
-4.82809
-3.38199
-5.41652
-3.97559
-2.18598
-0.874326
-2.65548
-0.391953
-2.35285
-0.930866
-14.9502
-2.77551
-27.7195
-4.29547
-14.4691
0.287219
-27.9586
-10.3202
-24.1573
-18.0994
-17.6373
-15.0447
-29.1155
-20.0683
-24.907
-5.83353
-23.0215
3.90622
-35.8998
-4.02686
-47.7433
-13.8015
-24.0817
-21.5271
-35.6022
-21.1492
-52.7058
-36.4907
-45.9705
-4.02438
-61.3874
-123.435
-148.969
-111.999
-148.336
-36.1541
-53.3549
-39.952
-90.1727
-55.56
-125.099
-45.685
-7.47093
-44.7995
-73.1427
-105.075
-156.61
-42.6203
-45.9353
-38.1291
-45.3165
-126.776
-58.4813
-18.7996
6.38104
-20.2366
6.4875
-53.5131
49.4823
-26.6313
-23.1622
-20.5005
-64.8942
-53.3742
-48.1375
-21.2304
7.0218
-13.413
19.7671
-43.0789
7.38523
-14.0506
-15.8144
-16.1069
-12.5457
-40.6608
-37.108
-18.5462
-18.9709
5.13126
-2.26062
3.51378
7.51175
5.85035
4.65817
4.44041
-0.920657
2.97445
0.0276273
2.90328
-1.546
3.09966
0.40904
-4.96443
-1.71537
-3.09649
-5.7954
-6.36837
-3.50618
-4.56906
-3.07541
-2.57222
-2.64842
-5.79471
-4.14384
-4.40951
-3.66404
-1.00991
-2.25411
-0.371197
-2.87736
-1.30806
-2.46052
-1.0983
3.28254
3.05267
3.56079
-0.266106
3.10711
-0.264184
-2.77414
-2.39589
-3.67445
-2.4814
-3.7417
-2.87623
-0.112553
-2.39834
-0.428958
-4.28335
-6.91521
-7.11592
-4.89172
-4.40562
-2.40905
-2.45856
0.350535
-5.8874
-3.88461
-9.68179
-3.87253
-2.47658
-3.43849
-3.97548
-5.45328
-3.99895
-6.72778
-4.6192
-6.27659
-6.10673
-5.6216
-6.94195
-4.97334
-7.49488
-6.80055
-4.80152
-3.26288
-4.43971
-2.50142
-4.96397
-3.56493
-2.60309
-0.372855
-2.31398
0.135503
-2.12104
-0.764844
-41.6455
-5.95162
-64.9548
-36.9838
-75.3943
-92.4274
-152.634
-27.5816
-64.7652
-51.7154
-69.7599
-44.7887
-137.103
-69.1123
-80.1387
-109.152
-143.364
5.54691
-94.7729
-164.12
-56.7116
-123.897
-82.5509
-73.7381
-152.543
-75.5583
-145.925
-98.3747
-175.786
-153.651
440.957
443.733
-88.152
-151.87
-68.884
-146.394
-71.8608
442.98
-26.756
-48.4667
-29.4377
-51.776
-22.9332
-23.096
-3.56648
-14.5192
-4.58741
-17.085
-5.86307
-16.1685
-2.88481
-100.947
142.895
-189.644
341.435
436.563
352.256
432.937
-179.583
-187.379
-160.028
442.184
443.487
439.873
442.311
-62.8342
-137.058
-43.3531
442.731
395.112
441.88
372.841
-33.73
-40.0534
-35.2006
425.35
-23.3794
449.769
-6.46267
-28.5189
-7.96348
-19.1737
-3.29376
-4.91552
-143.264
126.342
-156.653
352.657
432.615
345.334
430.74
-161.186
-192.178
439.335
441.899
438.888
441.688
-43.1117
-158.762
-64.011
441.561
408.559
441.312
366.581
-34.514
-51.8353
-36.6713
434.698
412.302
-30.3951
-9.76605
-24.0496
-10.628
-5.09155
-27.0102
-7.87358
-193.81
-73.7328
-158.504
439.128
441.832
437.109
-74.1851
-148.755
-92.9405
441.319
392.04
-76.2889
-35.8234
-58.3042
-38.4191
423.417
-30.4262
-65.2986
-29.5692
-8.96141
-20.6201
-5.89368
-27.3534
-6.91741
-21.7621
-3.19725
-129.425
-72.1882
-125.691
-132.358
-48.8099
-133.043
-101.277
-128.682
-98.8483
-129.717
-83.5941
-143.256
-94.2217
42.32
53.5342
41.4158
110.419
17.9375
75.7883
28.5145
-76.9012
23.9688
-59.5376
-18.0171
-96.0623
-68.5787
-53.7091
-53.6631
-107.396
-87.9678
-31.502
-47.9744
-25.6279
-83.3346
-44.1345
-67.3256
-35.0957
-35.667
4.89329
-16.4821
-13.8588
-49.6966
-1.2316
-28.1501
-40.342
-25.2831
-28.6254
-64.9723
-60.1314
-37.328
-39.4064
3.8368
6.37946
4.91841
3.02911
3.59575
0.616584
2.78793
-0.724061
2.74428
-1.22294
-3.99689
-4.55595
-5.139
-2.85144
-3.67378
-3.20991
-4.58336
-3.49342
-3.04499
-2.4257
-0.952324
-2.28955
-0.961096
-1.96648
-0.451052
1.74764
3.34984
2.91278
-1.86148
-2.83793
-3.27237
-2.53335
-2.23188
-2.17556
-0.22126
-10.3367
-4.52724
-2.77183
-0.5304
-4.59179
-7.29163
-4.9694
-11.9301
-7.49615
-4.58526
-12.0215
-5.70714
-4.16561
-2.0665
-2.56382
-1.93152
-3.12407
0.182825
-1.553
-0.328294
-3.66618
-1.44853
-2.53519
-1.36414
-1.86364
0.797096
-1.3095
-7.33568
-5.19417
-7.87242
-5.89358
-10.74
-6.00822
-10.3985
-5.83142
-9.28411
-8.18279
-10.8216
-8.09324
-11.5676
-9.62089
-2.78892
-5.6913
-3.97985
-3.50713
-2.55402
-5.44014
-3.61654
-0.335614
-2.42017
-0.949658
-1.76018
-0.711978
-2.36592
-0.994928
-152.56
-129.332
-164.993
-78.9156
-183.489
444.991
-63.621
-139.986
-69.3017
-134.248
-76.2941
-61.1148
-158.272
-160.902
445.002
445.526
439.204
443.397
-67.2228
-155.06
-66.0569
445.37
-57.3112
441.672
381.315
-22.7737
-55.7275
-23.5624
-46.5362
-20.863
431.011
320.321
-4.73218
-16.7209
-2.06718
-14.9145
-2.2962
316.73
440.554
443.586
439.762
442.371
437.033
440.487
-66.6115
442.846
469.194
440.413
412.248
439.466
421.451
-22.6135
432.19
412.75
316.851
424.805
349.225
-2.55827
-14.6825
-3.79888
318.644
20.3513
278.578
6.59015
442.913
438.816
440.593
434.319
439.067
433.497
437.689
410.066
441.98
351.908
439.049
419.123
438.18
448.967
457.359
360.228
447.683
314.328
451.551
248.058
-4.07321
337.798
-2.60063
248.059
3.37919
306.318
2.41289
439.769
438.019
441.258
432.692
437.027
432.034
436.752
411.965
440.559
398.231
438.13
440.858
436.222
481.667
329.837
418.184
329.57
431.263
299.751
376.884
294.671
-3.05967
-4.65297
299.199
299.548
4.10705
441.389
436.72
441.116
432.962
437.302
435.073
438.269
380.721
440.562
-74.9934
436.799
421.461
436.392
383.951
-62.9452
-26.6629
357.91
223.667
417.861
280.624
-5.66929
-21.8635
-3.53353
238.764
4.54092
316.833
-7.13224
440.969
-52.6062
432.848
438.758
438.382
440.063
-77.9097
-92.2653
438.323
557.865
439.315
417.54
-27.6069
-81.7132
-30.6355
411.559
327.932
402.587
-27.0937
-3.9623
-24.8225
-5.98509
307.515
-16.7336
-22.4321
-2.9527
-109.132
-134.827
435.964
440.314
-59.8135
-126.311
-134.832
-109.58
439.802
417.116
-127.817
-99.0344
-37.2769
-70.2555
-43.1542
-28.6572
-67.8768
-48.7706
3.70643
6.7573
6.08424
-2.16945
2.72923
-7.70539
-3.85379
-8.68411
-5.2816
-2.35668
-2.59744
-1.50628
-0.383092
-1.56849
-0.431204
-0.989293
0.376661
0.273514
1.46119
-4.31892
-14.3849
-1.04071
-12.0002
-13.7433
-4.14103
-12.5352
-8.53293
0.0440023
-1.6967
-4.87594
-2.32219
-1.23176
-0.36066
-1.894
-0.581391
1.40012
3.30154
0.271678
3.05575
2.59066
5.95213
5.71349
-14.1377
-4.42892
-15.7629
-0.880842
-12.3689
-1.74762
-20.1711
-5.41502
-15.7834
-10.4689
-13.0905
-9.79101
-21.3478
-6.55758
-2.49864
-7.6657
-3.10605
-7.00603
-2.50106
-0.903175
-3.69892
-16.7
-6.49597
-21.9856
-3.65182
-22.2103
-7.52438
-12.9173
-24.2108
-19.4944
-22.957
-6.99473
-30.6608
-26.0988
-23.2107
-42.6028
-7.65912
-47.7994
-30.2915
-90.4366
-26.8099
-43.9976
-34.7044
-44.25
-35.5205
-83.637
-45.9157
-110.304
-142.583
-167.291
-66.376
-117.407
-132.795
-169.107
-52.1267
-131.545
-74.8463
-102.186
-62.1266
-133.777
-62.1808
-164.834
445.06
445.991
-156.765
440.316
444.68
-63.6933
445.667
-57.4097
-138.506
-52.1654
444.011
466.315
-22.6165
-45.9396
-20.4167
-39.8327
-20.403
413.847
300.212
-3.63936
-15.2622
-3.12388
-15.0824
-2.85937
313.375
2.24322
442.728
423.677
443.424
377.613
442.989
388.45
-19.9412
440.224
317.144
357.536
276.797
385.019
155.794
-2.66117
306.424
309.529
-5.91762
286.485
-0.365011
429.954
439.677
365.753
442.997
416.804
440.292
463.107
312.334
423.926
304.016
427.327
271.829
446.662
246.695
4.47658
338.175
6.11444
288.655
-1.56948
227.434
-83.0852
419.889
438.275
446.698
439.005
566.881
438.024
630.634
322.855
450.14
225.145
433.041
250.43
440.241
285.924
0.390179
305.465
5.09632
106.981
278.54
-33.0269
436.556
436.251
421.701
438.96
476.117
438.324
435.519
274.308
369.632
306.859
436.011
12.1441
444.885
197.538
270.369
-0.453182
199.493
-70.7211
380.707
437.118
448.651
437.897
455.1
437.586
426.905
278.146
429.031
300.943
458.695
238.246
393.106
239.051
2.36423
339.74
-5.5553
173.35
273.995
-1.3337
417.314
439.281
415.362
437.205
216.29
435.452
416.642
295.448
423.876
408.666
160.037
437.075
288.68
-24.4906
-1.55101
278.955
2.271
258.915
5.471
440.303
-55.3717
-132.429
436.503
436.486
434.505
440.082
426.655
-130.627
-88.3026
436.008
417.058
438.982
-27.6178
-68.0187
-35.4519
437.807
289.072
-67.8734
-33.6658
-3.00139
-26.0762
-3.37245
318.878
0.847302
-28.3889
-4.36
-135.544
-99.1793
-164.783
433.521
-93.7388
-196.423
-99.015
-149.597
-105.698
-78.7539
-176.53
-94.4438
-41.4091
-63.6253
-42.0086
-68.8271
-37.9347
-57.9654
-42.7563
-60.8009
-2.21412
-29.43
-63.1423
-146.983
8.78081
-56.4366
-62.2011
-39.9693
-40.1823
-126.922
-67.3718
-53.9875
-47.5595
-17.4112
3.1372
-13.3144
18.1904
-49.1209
10.7225
-24.425
-15.5838
-13.983
-46.6581
-38.2327
-23.7864
-11.9992
6.01758
-9.36636
5.85583
-26.377
8.1505
-11.4945
-11.9169
-9.95431
-6.60472
-24.007
-19.2546
-13.7558
-9.54866
8.47795
9.12043
9.49218
1.53604
5.98171
-10.5673
6.67717
-8.23996
4.66734
-4.69959
-6.27095
-10.373
-8.25701
-6.37984
-4.61651
-0.9777
-5.7343
-1.36194
-2.54477
-1.39498
-0.816246
-1.42383
-0.795035
-1.12228
-0.415678
5.65628
4.48277
-4.20243
-5.09053
-3.82722
-2.79173
-1.66278
-1.37685
-0.269957
-0.228309
-0.463525
-2.4012
-1.40931
-1.54043
-3.84262
-7.66789
-2.3956
-5.4326
-3.29146
-6.18744
-9.32543
-7.78538
-5.9701
-4.8014
-8.43665
-7.53668
-4.23634
-2.69937
-4.08875
-3.07411
-5.21106
-3.76713
-1.89368
-0.819634
-2.67843
0.198091
-2.43604
-1.01668
-11.5494
-1.32269
-15.8656
-2.73027
-7.151
-3.06531
-9.61772
-10.2834
-16.5544
-10.4786
-10.4856
-9.90372
-13.9162
-12.1325
-18.8966
-1.83563
-13.4567
-5.70935
-22.0458
-11.4073
-19.2369
-17.4544
-26.925
-22.7834
-31.4579
-98.1853
-10.0558
-39.81
-64.658
-123.799
-91.0903
-42.2326
-40.9885
-32.0753
-102.096
-51.5706
-28.3394
238.953
-131.373
116.44
-88.5904
316.975
440.057
-118.122
-140.76
-160.408
-124.183
-160.751
443.398
446.18
-52.1345
-140.845
-57.2558
-134.821
-56.7672
445.573
-29.1296
-38.912
-21.355
-45.6669
-30.6811
-23.119
-4.53212
-16.1963
-5.8108
-13.6486
-4.3454
-15.8686
-2.04167
-155.545
442.275
443.79
443.894
446.055
440.31
443.118
-52.0736
443.555
408.843
445.199
428.705
442.159
428.592
-19.5439
413.11
299.658
437.157
-19.6772
435.006
224.643
-2.43515
300.553
12.048
-16.0502
-0.99754
277.713
-0.0486901
563.797
441.692
432.102
442.131
363.631
441.63
366.144
273.656
420.118
257.515
423.359
285.357
452.411
109.595
3.64722
318.711
316.869
4.1605
255.809
-102.883
389.374
443.397
425.262
441.91
444.581
436.701
504.368
199.031
446.767
256.165
444.467
174.982
414.668
169.576
0.0483697
382.254
-38.6683
216.241
340.667
591.195
437.212
605.088
434.461
447.28
427.08
382.323
206.89
442.196
217.202
353.3
170.111
346.816
266.292
-45.5998
237.719
-33.239
236.188
259.736
471.307
424.318
420.13
423.617
419.333
424.061
419.908
422.392
435.637
429.009
435.919
426.405
425.547
426.701
429.897
483.865
437.651
505.062
427.322
382.093
427.723
362.413
182.462
462.562
76.9699
347.726
267.562
282.033
260.16
177.484
261.021
433.656
254.509
664.887
465.714
439.322
216.372
431.614
401.043
435.424
439.701
215.238
404.141
220.649
274.916
209.501
449.466
243.898
394.061
1.2699
225.177
629.533
263.661
387.074
434.627
417.81
436.005
560.279
434.71
406.853
195.204
434.014
329.261
448.464
239.38
431.047
204.134
-20.9027
285.615
-1.29093
312.851
236.729
-3.43544
436.103
437.284
439.62
431.019
434.939
436.795
438.378
445.711
438.814
434.213
450.662
437.492
365.329
305.229
-33.4574
431.074
233.746
348.514
298.539
-5.98364
-28.3646
-5.30175
261.159
-22.3633
300.301
-6.1665
422.395
170.839
-25.8074
335.039
425.253
189.714
-73.8885
439.772
-123.664
-203.401
438.534
439.979
-86.8592
-185.367
-72.1261
-178.869
-72.7431
438.818
332.577
-171.664
-84.9673
-36.728
-64.2753
-43.3508
395.368
304.624
-71.4219
-42.562
-4.1543
-26.8621
-8.62513
-9.50849
-30.0324
-9.86434
-167.47
31.504
-77.7448
-172.556
1.79577
-71.573
-71.8966
-50.4477
-163.179
-98.6236
-80.1281
-58.948
10.018
-25.8608
8.91876
-41.7888
2.55152
-16.3809
-24.887
-21.2787
-47.744
-39.7283
-25.2529
-25.4761
-16.7059
5.00003
-9.25444
4.62237
-7.76904
4.07904
-4.27432
-15.8529
-11.2464
-9.75113
-15.6115
-16.065
-10.6918
-11.1834
7.40202
1.67997
5.56057
8.55184
6.96885
4.06785
4.72571
-4.27585
3.61707
-3.69222
3.29162
-2.32781
3.63539
-0.843081
-7.60052
-5.3047
-4.69623
-6.67393
-7.09602
-2.7085
-4.01712
-3.35677
-3.1586
-2.12548
-5.5912
-4.08747
-3.51236
-2.92225
-1.30127
-1.7302
-0.451345
-2.65727
-1.1684
-2.45694
-0.430127
5.06309
1.22052
4.51484
-3.6081
3.97365
-1.05845
-3.70561
-2.08517
-3.03921
-1.90984
-2.77639
-2.70644
-0.28608
-2.45706
-0.250379
-4.63688
-5.39714
-4.27866
-3.79223
-3.6451
-3.26506
0.222034
-2.45497
-0.834051
-1.42512
-9.06111
-2.4362
-0.578985
-1.30535
-5.23165
-2.8367
-5.59429
-2.41318
-4.70789
-2.69801
-5.27507
-4.78392
-8.32795
-7.63259
-5.65938
-4.99783
-8.10982
-7.59235
-3.18959
-5.80229
-4.26219
-4.29258
-3.84158
-6.03147
-4.55012
0.143673
-2.67054
-1.09148
-3.17357
-0.363736
-2.90664
-1.17037
-183.423
443.999
446.066
-65.534
-157.641
445.267
445.534
-59.9657
445.418
-139.606
-72.9488
445.087
437.842
-26.5564
-22.0658
-54.4121
-22.6588
443.103
-17.9824
-4.59247
-15.5999
-2.03425
-15.1347
-3.94399
-13.5093
-1.49508
446.04
438.775
442.42
444.224