/*--------------------------------*- C++ -*----------------------------------*\
| =========                 |                                                 |
| \\      /  F ield         | OpenFOAM: The Open Source CFD Toolbox           |
|  \\    /   O peration     | Version:  4.0                                   |
|   \\  /    A nd           | Web:      www.OpenFOAM.org                      |
|    \\/     M anipulation  |                                                 |
\*---------------------------------------------------------------------------*/
FoamFile
{
    version     2.0;
    format      ascii;
    class       volScalarField;
    location    "20";
    object      p;
}
// * * * * * * * * * * * * * * * * * * * * * * * * * * * * * * * * * * * * * //

dimensions      [0 2 -2 0 0 0 0];

internalField   nonuniform List<scalar> 
146404
(
-8.19371
-2.61772
-20.4976
-16.2947
-17.1399
-6.74952
-2.76436
-15.2957
-17.192
-13.5802
-1.83118
-20.7873
-19.9491
-19.6157
-7.53667
-2.31047
-16.294
-9.16928
-4.04961
-18.2211
-17.8302
-16.705
-8.84005
-3.66424
-14.1181
-16.3682
-17.0649
-9.54675
-2.14094
-9.44509
-15.1736
-19.2191
-11.2807
-2.82561
-9.75431
-15.4503
-19.7425
-10.6755
-1.46857
-7.35204
-9.55041
-17.0632
-2.4539
-9.97414
-18.2414
-23.7781
-9.22406
-2.1136
-12.1942
-18.3391
-20.4726
-10.5812
-2.04044
-15.0317
-18.6482
-17.9962
-9.61363
-2.42665
-18.1998
-20.0828
-16.4486
-9.18408
-3.06478
-9.53298
-6.15629
-0.295721
-9.83147
-16.5656
-22.0325
-10.5684
-2.34582
-5.11652
-14.546
-21.2127
-13.6828
-4.37004
-2.97605
-15.6378
-23.8792
-14.9005
-4.98976
-1.49054
-12.6985
-23.8247
-15.5377
-3.95192
2.46733
-10.6488
-25.2936
-4.73829
-2.78736
-17.422
-29.3151
-14.095
-4.69172
0.875844
-16.5139
-25.7105
-14.7093
-4.72201
-5.38284
-14.8383
-22.8574
-14.2821
-2.92802
-9.21648
-18.7156
-23.6076
-9.63266
-1.76885
-9.66648
-17.7466
-13.5845
-0.302079
-16.4967
-20.7015
-7.15587
-1.35767
-12.2592
-15.5212
-16.5273
-6.20641
-1.33114
-5.54931
-14.5834
-24.0566
-7.97064
-0.772658
1.94464
-10.5425
-32.6308
-12.4444
-3.26905
6.36705
-18.2238
-30.7548
-17.6123
-4.72041
17.2172
-31.2395
-32.2274
-18.9716
-6.75679
29.1837
-43.434
-39.7018
-23.9344
-7.12457
33.3379
-3.10118
-32.456
-6.64966
23.5092
-38.4667
-44.5381
-23.8782
-6.79249
9.31446
-28.9425
-44.6835
-25.8011
-3.98698
8.5061
-14.9086
-33.841
-22.9779
-4.50291
2.85492
-8.6345
-35.4417
-15.5409
-0.941678
-5.23205
-14.5731
-22.5383
-10.498
-1.75099
-11.033
-14.633
-17.2325
-8.80143
-1.74939
-14.5543
-14.0106
-8.02474
-4.51623
-12.51
-14.7804
-15.1427
-8.18719
-0.92874
-5.06367
-13.0486
-18.814
-11.0537
-3.88625
0.61857
-13.8497
-25.5686
-14.3728
-3.99493
20.7691
-14.4371
-42.6021
-16.7634
-4.85949
50.2637
-33.7025
-53.9654
-27.5555
-8.03968
79.8323
-142.061
-70.2837
-24.8748
-6.89302
103.289
-224.519
-80.1001
-29.7587
-7.8642
130.457
-205.552
-30.2888
-8.47966
99.071
-239.013
-88.8213
-33.1849
-7.23763
70.6776
-188.493
-74.5998
-28.7944
-8.00915
40.6715
-32.7658
-65.3663
-31.2968
-6.90346
17.7849
-7.33422
-45.3639
-22.8823
-5.11079
1.9126
-10.214
-22.1207
-14.0513
-4.99021
-4.29411
-11.8733
-17.6799
-10.6848
-2.77109
-10.7178
-12.7028
-15.1113
-9.6054
-3.65675
-14.2582
-15.3742
-15.4826
-8.08261
-2.37782
-5.53146
-12.8704
-18.7581
-9.71561
-2.47108
0.929723
-14.4436
-23.527
-12.466
-4.57667
15.1904
-21.6212
-33.7383
-15.317
-4.76263
53.4169
-124.421
-55.6618
-22.2638
-5.09057
117.567
-210.114
-81.433
-27.0216
-5.19415
312.991
457.846
-29.0036
-6.86958
398.377
455.939
457.338
433.076
402.485
452.809
455.884
454.667
313.809
387.132
452.126
456.424
445.398
310.783
448.232
-31.9378
-8.07262
165.472
-33.9798
-8.56635
47.615
-74.5921
-56.0631
-21.3614
-6.36763
8.43508
-11.025
-30.4517
-17.8934
-6.19207
0.891805
-8.39295
-23.5874
-16.9525
-2.23329
-5.51644
-12.0791
-19.7718
-11.5541
-2.1175
-12.0854
-13.9032
-14.7741
-8.75653
-1.24148
-5.3305
-12.0225
-23.3022
-6.25336
-0.5484
-1.27686
-12.0546
-25.7473
-10.4086
-1.26551
7.9862
-13.7237
-31.0829
-18.8555
-3.84301
41.9199
-63.6276
-46.9351
-21.104
-6.3564
120.803
-204.596
-82.169
-29.4882
-5.85314
391.226
458.562
460.264
-6.00197
433.716
452.87
455.464
423.304
300.094
435.862
449.205
452.582
454.92
322.879
434.323
447.907
453.578
439.945
287.696
429.131
446.654
450.872
430.165
327.694
407.51
445.77
451.627
413.688
291.485
356.855
451.1
453.549
448.521
-7.22843
163.933
-195.209
-109.404
-29.676
-8.33338
30.0566
-41.8804
-49.437
-27.0345
-6.32452
9.44791
-8.59227
-34.1791
-21.7329
-2.32409
0.0289759
-9.15051
-27.236
-13.4708
-0.616049
-5.38374
-13.0509
-23.2695
-7.10327
-0.946645
-4.70687
-12.674
-19.1523
-8.97656
-1.68203
3.61587
-6.33613
-27.8442
-12.7047
-3.4444
22.9905
-21.8059
-6.09783
68.6815
-92.056
-67.268
-25.4494
-7.56953
310.643
-73.0211
-27.9157
-8.27365
434.421
453.59
458.312
409.154
280.384
440.012
450.604
458.16
375.93
292.896
438.803
448.141
455.422
450.896
311.213
437.733
445.797
451.595
448.042
240.651
434.916
444.607
452.925
471.105
363.745
427.55
443.979
450.563
376.037
348.496
402.368
445.854
446.987
446.398
298.274
307.43
444.835
452.594
-27.799
-7.79356
64.189
-98.1786
-79.976
-29.1375
-7.10431
19.4516
56.1572
-43.1745
-4.29428
3.37125
-4.036
-30.8322
-15.101
-1.23518
-4.83989
-12.0321
-17.4767
-9.42336
-2.14122
-11.1957
-14.9498
-8.21511
-3.27061
-10.2961
-11.6949
-9.17545
-4.68498
-3.32932
-9.98642
-16.6052
-11.3884
-3.11578
3.39408
-12.3203
-22.7212
-13.1258
-4.62548
28.1772
-32.5974
-33.4932
-20.2264
-6.58221
81.9737
-194.675
-73.8331
-25.7464
-6.96269
395.664
459.085
459.206
463.326
-7.9212
438.016
451.704
456.734
404.734
267.574
440.162
449.647
454.825
476.041
266.239
441.44
448.26
437.778
324.768
268.508
438.74
445.457
434.104
352.809
244.633
436.314
443.466
432.355
313.326
260.668
431.486
442.632
449.143
459.47
207.824
415.248
442.856
446.166
424.318
253.821
354.296
449.871
452.888
401.901
300.422
100.759
-232.925
-77.3886
-28.5342
-7.38077
11.5382
-19.0025
-37.0288
-12.912
-4.22206
3.20199
-8.44133
-18.0476
-11.5332
-2.7126
-3.24029
-9.49336
-15.1865
-9.99585
-2.84487
-11.3308
-10.5039
-10.3967
-8.72165
-3.58382
-15.9353
-8.83934
-12.9655
-8.53646
-4.01181
-3.45488
-9.8905
-16.2461
-10.8835
-3.06945
3.31106
-12.654
-22.7717
-13.6825
-4.68339
30.2274
-37.497
-33.5555
-20.5249
-6.69823
105.692
-181.093
-86.5794
-27.0338
-5.444
401.743
457.398
458.863
443.025
438.079
451.781
456.589
453.157
334.454
441.046
450.841
462.299
460.81
241.542
441.3
448.969
439.671
342.78
258.521
436.618
444.124
429.151
359.55
259.003
434.896
442.467
433.803
346.426
247.718
432.765
443.329
447.244
474.216
241.973
418.816
443.812
447.816
456.384
260.588
363.317
448.41
452.574
429.467
315.788
118.23
-178.485
-75.283
-27.0268
-7.5713
10.2979
-13.9607
-28.1776
-13.5409
-4.11634
3.92335
-8.80186
-19.4571
-11.813
-2.9559
-2.56829
-8.70271
-14.3568
-10.1018
-2.67157
-10.9873
-8.47412
-11.324
-6.71903
-2.655
-10.3824
-11.5024
-7.21005
-3.26722
-5.91104
-10.558
-15.9958
-8.93768
-1.10629
3.27303
-9.2911
-22.4026
-13.3055
-2.83833
29.7372
-19.3984
-34.8494
-20.8505
-5.98835
97.7381
-191.023
-70.4614
-27.0499
-6.90773
385.89
456.851
458.798
429.947
-8.10788
434.645
451.926
454.732
440.473
279.927
440.324
450.172
458.538
459.437
265.242
441.571
448.562
442.738
341.08
265.516
440.844
446.237
433.331
345.08
258.754
438.41
445.578
439.071
344.508
267.299
431.4
445.877
452.055
454.197
172.098
415.493
447.112
448.755
367.995
273.299
344.654
453.287
453.345
447.336
318.258
84.813
-227.383
-86.641
-28.9911
-7.0639
19.5538
-13.2542
-36.4586
-24.2664
-4.38296
4.10013
-7.54059
-21.2786
-14.8628
-1.00815
-4.48951
-10.5008
-16.6785
-9.45486
-1.76082
-11.1098
-11.138
-9.88348
-7.88206
-3.18157
-5.16383
-12.847
-19.0877
-7.08753
-0.840915
3.64997
-8.30398
-26.0371
-7.59985
-1.42504
20.4688
-15.4447
-3.96877
59.3678
-73.3414
-65.8514
-24.3568
-9.60838
286.846
-73.6673
-28.6718
-8.38385
413.032
453.118
455.026
456.952
294.211
434.707
450.132
455.167
445.798
243.907
437.726
448.484
451.574
461.295
365.575
437.311
449.572
464.408
456.444
258.327
433.324
447.425
452.167
451.07
269.923
426.062
446.916
450.104
382.943
268.814
398.686
451.043
450.5
386.843
289.273
289.604
449.64
455.562
-28.7278
-8.49462
51.2329
-90.041
-68.0451
-28.7806
-5.28117
15.1535
5.45276
-33.5035
-1.53938
3.24023
-3.61659
-32.4479
-15.5006
-0.756964
-4.02277
-8.17436
-21.1227
-9.1087
-0.666276
-12.0595
-13.9943
-7.77421
-1.83012
-10.1057
-17.2449
-22.2623
-6.73623
-1.11935
-5.38505
-14.794
-22.0564
-10.9859
-2.44926
2.63406
-15.4342
-24.0279
-14.3352
-4.92457
32.0809
-38.5981
-36.4931
-16.5233
-4.57644
108.869
-200.475
-81.3906
-28.6405
-6.707
335.051
459.266
459.273
-9.0341
407.983
452.755
455.084
448.849
271.415
422.932
449.831
452.63
459.138
257.202
424.855
449.745
457.164
361.199
172.65
419.781
448.976
451.101
455.286
267.079
398.529
451.775
450.747
421.137
281.344
343.053
454.648
455.309
354.229
-7.28825
70.4882
-175.225
-64.6285
-26.0733
-4.89753
6.19294
-17.6742
-28.5887
-16.0574
-5.6436
-1.79034
-12.4873
-26.9985
-17.0861
-1.75547
-3.63376
-13.5527
-21.0046
-9.92809
-1.05444
-6.89303
-12.5083
-21.2195
-6.0959
-1.22484
-19.0872
-16.3865
-14.8831
-7.97682
-3.02447
-11.4903
-14.3707
-16.7796
-9.62437
-1.64345
-5.22592
-13.5897
-19.5173
-11.9662
-3.64775
8.49792
-15.7086
-27.5482
-16.6706
-4.10569
40.6026
-54.2749
-49.0986
-22.797
-4.72352
90.6994
-163.032
-75.7854
-29.8414
-7.45668
279.377
456.381
-76.959
-30.3526
-8.00917
361.891
455.536
456.049
409.486
371.467
455.555
457.512
418.797
326.861
360.524
455.437
455.04
443.004
281.049
453.063
-28.9063
-8.88769
74.682
-28.3966
-6.00608
29.4469
-37.695
-43.7049
-21.4416
-3.78009
-1.51851
-12.9962
-20.3288
-12.3181
-4.30142
-6.66425
-12.351
-16.2508
-9.25904
-2.11309
-8.80235
-12.3673
-16.1626
-8.89601
-2.24567
-12.7086
-14.3286
-13.6559
-6.8406
-2.29415
-15.7575
-16.3672
-14.7433
-8.06798
-1.26053
-10.0438
-14.1607
-18.0561
-7.32399
-1.48618
-2.56245
-15.3445
-24.4241
-12.413
-1.28781
13.0548
-10.8091
-41.5667
-16.7934
-2.40016
27.2177
-30.5248
-39.6469
-19.5607
-3.46537
42.2903
-78.2675
-51.2597
-22.7798
-5.90226
56.1673
-151.261
-56.8322
-24.7857
-6.66804
67.7786
-202.4
-26.908
-6.95077
53.972
-155.022
-60.225
-26.4241
-7.05143
40.2775
-72.1149
-50.0026
-22.8404
-5.61702
21.7967
-32.5541
-48.2985
-25.5813
-3.7027
7.612
-13.6181
-40.8088
-17.8678
-0.812965
-3.87107
-13.1838
-21.2907
-13.7345
-1.68857
-9.38882
-12.61
-16.4882
-9.95188
-2.5334
-12.1833
-13.2276
-13.8406
-8.51191
-2.84534
-13.1552
-16.3075
-17.9481
-7.24507
-2.398
-6.48488
-14.2933
-25.1855
-8.52659
-1.15291
-2.61506
-12.4876
-29.1204
-5.81285
-1.67659
-2.94716
-13.7887
-20.8768
-12.3723
-3.89109
-0.330011
-15.6468
-24.6707
-14.7362
-5.11627
14.5141
-22.3408
-31.7692
-19.5909
-4.01645
17.8897
-34.303
-23.737
-4.32777
-0.479529
-23.1777
-34.4987
-13.5916
-4.76452
-3.77304
-15.8218
-22.3652
-13.1256
-4.06286
-2.17489
-16.3281
-25.5449
-16.48
-2.39146
-4.84109
-12.5669
-31.6912
-14.2057
-0.311181
-9.05233
-14.3033
-24.3988
-8.99287
-0.867736
-13.2034
-16.6758
-16.7652
-8.65121
-2.25234
-15.5214
-13.4505
-8.3958
-3.15666
-11.2022
-2.13008
-0.8841
-11.673
-15.976
-17.1898
-6.96308
-1.49574
-8.59978
-13.1162
-17.3369
-10.1533
-3.23543
-6.95395
-13.7485
-19.0764
-11.8403
-2.71157
-2.98506
-12.4417
-21.3983
-15.0764
-1.32934
0.0332642
-19.3331
-16.0668
-2.39972
-8.03572
-14.9302
-23.6422
-9.00555
-2.38767
-7.80287
-14.7212
-17.4919
-9.69047
-2.66018
-12.1515
-16.4641
-18.6272
-11.0622
-2.8317
-13.9441
-19.019
-20.3229
-9.03833
-1.90492
-12.5559
-12.2651
-29.4522
-12.5408
-1.06359
-19.2607
-7.06927
-1.73828
-19.4687
-16.7323
-12.591
-6.69357
-2.04033
-15.0597
-15.5558
-13.3292
-8.83829
-3.67017
-11.678
-13.8093
-15.7985
-9.50354
-2.76677
-9.84707
-14.8572
-19.3324
-10.3724
-2.31064
-7.36079
-20.8518
-10.9913
-2.31159
-11.8738
-17.9231
-19.2174
-9.27968
-2.81253
-15.7452
-18.7149
-16.3971
-8.0915
-2.85248
-17.6265
-18.9688
-15.354
-8.85803
-3.78293
-19.8891
-18.6695
-16.0888
-7.93774
-3.70538
-18.7888
-15.759
-15.6484
-8.93799
-3.21744
-16.4804
-22.4236
-6.27658
-2.53688
-20.317
-18.977
-17.7534
-8.94198
-3.12229
-8.80084
-4.66283
-16.4291
-16.0966
-9.04452
-7.40902
-3.05529
-2.93316
0.00926074
-20.0285
-16.1106
-17.5251
-23.6622
-23.7502
-17.0021
-8.77117
-24.006
-9.00334
-7.05359
-3.22456
-9.63981
-2.41619
-2.94089
-0.00139864
-2.23522
0.343281
-19.8356
-5.14114
-19.5777
-17.3121
-19.5367
-22.3186
-21.5549
-10.1372
-16.8076
-2.49436
-7.86167
-2.25926
-2.23352
0.348639
-2.1442
0.00522005
-19.8746
-19.3968
-21.0514
-20.0419
-9.98582
-7.78968
-2.50396
-2.11135
-0.00630151
-18.0979
-17.9516
-17.9932
-17.9396
-9.96768
-8.4847
-4.42365
-3.72123
-0.0711525
-22.1011
-18.2535
-17.6608
-17.4505
-17.7135
-17.4992
-17.4104
-16.2754
-17.2055
-9.91534
-15.3744
-11.5379
-8.69658
-4.76039
-9.68011
-4.68783
-4.01466
-0.206308
-3.15012
-0.483268
-16.854
-17.3428
-14.6495
-15.7077
-17.4817
-16.1662
-16.2487
-17.1796
-15.1471
-11.3011
-16.033
-11.8795
-9.50094
-4.4513
-9.62325
-4.63044
-3.12013
-0.525383
-3.45977
-0.593869
-20.7551
-16.9492
-14.2951
-15.1373
-13.081
-14.3669
-16.454
-16.3998
-16.0894
-16.182
-16.3542
-17.5495
-10.4164
-15.8268
-9.68736
-16.1053
-13.7465
-17.8136
-15.2524
-5.02215
-6.96309
-3.51633
-8.70933
-5.4404
-9.3053
-5.51202
-2.7137
-0.431679
-2.42886
-0.600137
-2.69637
-0.628216
-16.8107
-15.823
-15.3616
-12.5856
-14.2707
-11.127
-11.5924
-17.764
-21.0406
-24.3438
-17.5359
-19.3086
-21.2227
-28.6338
-9.79233
-24.2339
-10.0422
-18.5716
-14.0598
-28.202
-13.2956
-3.27611
-5.21921
-2.75995
-7.53361
-4.44849
-7.59006
-3.49973
-0.455472
-1.76801
0.192055
-2.28937
-0.697822
-1.10064
-0.166145
-10.1119
-20.2503
-19.1874
-10.3119
-2.18952
-12.6131
-14.5721
-20.3066
-22.653
-11.2554
-18.1951
-25.5742
-21.021
-11.2136
-14.3279
-23.3349
-13.2022
-2.59434
-6.99954
-2.38557
-16.5916
-4.70299
-7.888
-3.70252
0.0816595
-1.73345
-0.276423
-1.73504
-0.333442
-2.25038
-0.95261
-20.2721
-20.8883
-13.8494
-16.1164
-15.0104
-17.1649
-21.1476
-20.2829
-17.3109
-19.6966
-22.6108
-19.853
-21.7905
-11.0089
-16.6348
-10.7594
-21.2261
-16.2972
-20.5043
-15.304
-3.16824
-9.02889
-4.34259
-8.91805
-4.4257
-9.28811
-4.97403
-0.264088
-3.69778
-0.297405
-2.19261
-0.633811
-2.62194
-0.726682
-14.9382
-17.8102
-16.9021
-19.2612
-17.0982
-20.4275
-20.3828
-20.4668
-18.8436
-10.9624
-18.3074
-13.6085
-17.1379
-12.3003
-4.27708
-8.53779
-4.44702
-10.306
-4.94218
-0.336273
-2.6935
-0.970752
-3.64159
-0.761897
-17.6171
-19.4456
-19.8994
-20.8361
-20.1517
-18.1522
-20.0305
-16.7294
-16.5863
-12.0479
-15.8274
-11.0413
-10.3642
-5.07872
-9.14106
-5.11132
-3.69183
-0.632469
-4.02688
-0.406217
-20.6934
-20.8188
-19.7982
-17.1358
-16.3955
-10.7726
-9.29956
-4.51837
-3.7727
-0.21994
-13.7184
1.07586
-4.71338
-1.35748
-0.458643
0.395431
-20.3104
-18.0514
-12.5061
-12.5659
-13.5193
-15.0388
-17.8775
-17.8049
-21.9739
-18.8155
-22.4298
-17.5308
-11.4365
-15.6034
-20.571
-15.5399
-8.59112
-4.54949
-3.69042
-2.28126
-8.12433
-4.43985
-3.1553
-0.334295
-0.807054
0.148499
-1.80874
-0.36478
-17.6714
-15.423
-15.8718
-13.4
-14.3958
-12.3589
-13.6913
-17.488
-16.9387
-17.3508
-17.4326
-20.3997
-16.0857
-18.722
-11.3541
-16.6468
-13.2048
-19.8235
-15.3412
-19.2039
-15.9002
-5.0731
-8.69511
-5.30478
-8.71167
-4.87632
-10.5649
-5.38299
-0.444208
-2.5048
-0.598544
-2.41953
-0.537703
-2.47083
-0.443257
-19.4784
-21.5292
-29.4885
-14.094
-20.1236
-15.2449
-34.7479
-16.842
-29.1241
-14.0458
-21.1484
-18.7763
-34.9298
-19.7957
-17.1563
-26.4016
-10.8318
-14.6624
-28.7536
-15.0403
-24.5423
-14.2448
-21.7995
-28.6142
-18.0022
-16.5473
-17.685
-19.9541
-10.7923
-12.9888
-12.5445
-14.1952
-19.9795
-13.2348
-15.1208
-11.7581
-13.6202
-17.7322
-19.2897
-22.2338
-17.3174
-27.0581
-11.5693
-20.279
-14.7484
-25.4687
-14.5737
-4.55585
-9.05717
-4.98872
-8.1326
-3.83485
-0.413208
-1.77151
-0.363115
-1.57596
-0.13284
-11.9332
-10.9386
-14.4792
-28.9351
-16.2759
-22.1227
-27.7859
-13.5968
-22.0993
-10.6158
-10.5386
-1.84532
-7.64282
-1.48712
-1.24087
0.122457
-1.07276
0.139502
-16.1635
-17.3517
-17.1242
-16.082
-14.5857
-9.28555
-6.65052
-2.56916
-2.1407
-0.154754
-11.9963
-10.6962
-14.5043
-15.9033
-10.9064
-13.1911
10.5345
-17.6341
-18.1715
-17.2659
-23.2892
-27.4144
-15.7695
-11.07
-21.7266
-11.3734
-1.00816
-1.85343
-5.64131
-2.64535
-5.11683
-2.36933
-0.883797
0.273942
-1.38095
-0.320289
-1.3236
-0.440694
-16.4058
-25.0032
-15.7781
-26.2566
-12.1533
-35.1052
-23.2966
-14.3298
-24.7441
-11.555
-32.4466
-19.3298
-22.0675
-15.1771
-36.0675
-20.706
-30.9638
-19.7733
-51.1662
-21.7949
-35.9707
-21.729
-30.0713
-26.5432
-46.4476
-30.5545
-14.4405
-30.6011
-4.72149
-19.1637
-40.9149
-22.8739
-30.0091
-21.0562
-30.8693
-38.5579
-28.3847
-25.9151
-15.5363
-28.6312
-10.8637
-32.8812
-10.2364
-29.0349
-15.9302
-27.601
-13.5024
-33.2146
-23.0627
-27.392
-15.5142
-8.31284
-17.1824
-16.0032
-7.74733
-8.68855
-10.7844
-12.8983
-17.1556
-21.351
-13.4524
-26.0145
-17.1508
-20.4775
-13.8635
-21.0389
-11.7561
-25.3805
-15.9098
-19.566
-14.864
-2.2542
-6.83597
-1.85059
-9.96219
-3.25089
-8.32293
-3.6856
0.193896
-1.18861
-0.0332305
-0.777296
0.0345489
-1.03727
-0.0542975
-16.0337
-12.0983
-14.6108
-15.9584
-21.1112
-15.8857
-18.3461
-15.6698
-14.5483
-10.2866
-17.7673
-12.6344
-14.1648
-9.68538
-1.80272
-9.52223
-3.15872
-8.32162
-4.28348
-0.0151189
-1.91997
-0.195867
-3.90896
-0.237884
-16.8033
-16.1931
-16.0522
-13.7244
-13.2208
-9.41108
-7.03894
-3.39298
-2.69107
-0.273371
-14.7867
-16.0112
-15.0552
-15.4823
-12.2865
-13.1118
-15.9888
-15.7897
-15.9778
-14.1903
-14.362
-15.4839
-14.4552
-11.1976
-13.4129
-9.61746
-15.6376
-12.4706
-6.74301
-3.60019
-7.44831
-2.64716
-7.69956
-4.21599
-1.72676
-0.318159
-2.15036
-0.395464
-1.63664
0.0475308
-25.3797
-14.4311
-37.3861
-15.191
-22.9145
-11.0875
-35.8815
-13.6572
-33.4196
-23.3555
-23.3381
-17.8956
-35.5469
-23.0708
-34.6634
-17.4592
-30.9044
-8.56424
-40.2828
-18.154
-49.3098
-21.3455
-30.7529
-24.2339
-38.568
-22.0885
-49.4745
-31.078
-47.6097
-20.6424
-55.6846
-109.702
-91.0604
-148.077
-80.2623
-31.2628
-50.4654
-31.9159
-55.6626
-38.333
-70.9666
-33.2628
-31.1899
-49.4862
-124.419
-143.839
-97.9629
-31.9738
-45.6707
-32.7128
-33.5354
-74.1718
-38.422
-30.5225
-10.4438
-34.6872
-22.0952
-55.5556
25.9693
-30.0973
-35.5258
-26.3586
-52.8492
-35.6052
-33.9531
-35.2596
-11.1131
-29.1509
-0.911912
-47.6471
-9.5504
-26.0001
-23.609
-28.8465
-18.703
-44.0155
-30.8545
-26.8942
-20.3246
-12.1653
-17.9025
-15.3181
-8.27587
-9.96447
-10.7249
-11.5003
-16.5591
-15.2746
-14.2967
-12.356
-15.2802
-12.8693
-14.4983
-14.0505
-14.0012
-10.1737
-17.6482
-15.8841
-15.7002
-13.9003
-4.37375
-7.80517
-4.97236
-10.8195
-6.56798
-8.77262
-5.41209
-0.137358
-3.96944
-0.440956
-2.88827
-0.35793
-2.45483
-0.518218
-15.1562
-12.1118
-12.8841
-14.3982
-13.3996
-15.0966
-9.12806
-14.8788
-11.7808
-5.07548
-9.41674
-5.39893
-0.13363
-4.14974
-0.598031
-15.2741
-15.0991
-14.8116
-9.5909
-8.49222
-3.65415
-3.08691
0.586224
-15.2755
-15.2626
-17.8125
-15.6708
-11.2187
-13.3569
-15.5992
-14.298
-15.1523
-14.8969
-15.0113
-16.0351
-13.6143
-9.68804
-14.7782
-9.74693
-16.0304
-13.2359
-7.40543
-3.19851
-8.86955
-3.78648
-8.44977
-4.33126
-2.86568
-0.299223
-3.137
0.164165
-1.3882
-0.297136
-45.3408
-23.6325
-56.3834
-53.5588
-55.6196
-149.947
-90.8703
-25.4395
-54.1602
-37.8254
-47.6438
-30.7299
-77.5025
-34.1968
-60.5096
-127.55
-97.1943
-57.2974
-227.132
-102.892
-37.7793
-60.4279
-39.4994
-35.9147
-78.2153
-37.0986
-118.917
-201.84
-111.792
-94.143
454.622
458.615
-43.4949
-83.9052
-37.8157
-81.9282
-35.9791
457.995
-14.2502
-26.3655
-14.7938
-26.9312
-10.8887
-10.3241
-2.22601
-7.17691
-2.11747
-7.4988
-1.53808
-7.86553
-0.85654
-236.045
131.717
-278.493
346.005
450.26
358.743
446.137
-108.438
-237.168
-82.6256
457.306
458.832
453.028
457.166
-37.1067
-72.131
-32.389
458.082
406.677
456.418
386.702
-15.4476
-27.1358
-13.7034
441.693
-10.7086
470.177
-2.58344
-8.10943
-2.46202
-9.02165
-0.753363
-0.662969
-208.412
106.41
-263.581
359.12
446.496
348.134
445.75
-241.57
-108.532
453.258
456.542
453.23
457.021
-32.3651
-80.5282
-39.1507
456.093
424.355
456.832
375.91
-13.3963
-31.9611
-14.9413
452.993
426.795
-11.146
-2.52118
-7.27344
-2.1096
-0.826008
-9.49449
-0.432235
-117.593
-179.636
-125.62
453.324
457.217
447.517
-41.2728
-92.5713
-47.3589
456.876
404.915
-35.9636
-14.8677
-28.6801
-15.8951
439.98
-10.9225
-32.2636
-12.6385
-1.90448
-6.94844
-1.78503
-8.66171
-0.563538
-8.49512
-0.673308
-131.791
-105.517
-108.887
-112.437
-224.003
-129.216
-45.1772
-70.1366
-44.5725
-93.0772
-38.2577
-109.018
-38.6541
7.33439
30.8
18.7376
85.5967
-74.3125
53.3055
-2.94654
-74.4841
0.151327
-56.3795
-54.6331
-82.1493
-40.807
-51.2379
-35.3107
-70.6429
-43.9523
-15.5339
-29.8771
-13.9215
-37.8735
-18.047
-34.4827
-15.8517
-44.8011
-10.0391
-25.9044
-26.9864
-50.4263
-13.4161
-32.7972
-31.7952
-29.0535
-26.4889
-48.5521
-38.5458
-31.1747
-28.1932
-11.9876
-8.32341
-9.98288
-11.6193
-12.9911
-14.1355
-12.1855
-14.6528
-13.8037
-14.7449
-13.8444
-16.3841
-15.1439
-14.8874
-10.9843
-6.39403
-10.2954
-5.94787
-8.95067
-3.86596
-0.981828
-2.57642
-0.440241
-2.66943
-0.186004
-12.7831
-13.5822
-13.7472
-14.2728
-14.0111
-11.245
-9.23403
-3.28106
-2.10937
-0.176897
-18.3177
-16.2138
-9.84677
-10.9003
-15.8934
-15.2648
-15.2871
-21.6831
-14.9624
-9.5311
-20.6128
-12.3607
-8.40039
-3.21549
-6.54461
-2.20944
-3.4114
0.285576
-1.43432
-0.000938308
-14.8566
-9.71862
-11.2832
-8.69305
-11.0444
-6.85601
-9.19003
-15.7544
-14.4427
-17.3612
-15.7663
-20.5147
-14.2914
-20
-10.7597
-17.9303
-15.2949
-18.764
-14.5299
-19.9554
-16.1664
-3.45903
-10.0113
-5.30288
-8.1359
-3.95594
-9.81582
-5.48707
-0.233282
-2.13769
-0.397236
-1.33884
-0.202216
-2.44296
-0.324424
-89.6295
-221.644
-99.3988
-203.451
-106.015
457.99
-36.9035
-77.0793
-35.8207
-66.8898
-41.9788
-30.5782
-94.8982
-92.0532
458.127
461.065
454.021
458.67
-33.9306
-79.3592
-33.31
460.689
-28.9233
456.537
394.837
-10.3626
-28.6923
-9.99116
-25.303
-7.90459
442.316
317.484
-1.37164
-7.05009
-0.608312
-5.20742
-0.320901
311.169
455.341
458.08
454.435
457.73
452.214
455.623
-33.1853
457.455
483.991
454.974
423.583
453.897
432.738
-9.30825
447.99
424.478
313.521
435.436
339.322
-0.645086
-7.33346
-0.294786
313.478
4.5854
269.734
1.22969
458.112
452.761
454.787
449.881
454.427
448.111
452.675
422.672
456.233
368.882
453.421
431.865
453.276
459.204
476.15
359.162
459.042
306.221
461.765
250.758
-0.286669
338.53
-0.212797
249.445
2.84995
306.016
8.48286
454.273
452.148
455.861
447.601
452.361
446.792
451.479
425.245
455.899
412.709
453.216
452.234
450.941
491.873
329.549
434.009
330.917
440.518
304.982
388.23
303.627
-0.254368
-0.0193674
298.298
302.607
1.12204
456.421
448.756
456.243
447.628
451.931
448.65
452.31
395.653
456.152
-34.8141
451.001
434.072
451.189
397.607
-30.9388
-10.984
363.959
227.361
426.437
276.939
-0.139606
-8.98583
-0.581109
243.867
3.21965
303.549
-2.90401
457.026
-217.555
445.486
452.743
451.713
454.372
-35.7471
-37.4538
452.939
564.429
453.708
430.97
-11.1236
-35.5497
-13.957
422.607
312.376
413.762
-10.0524
-0.605227
-9.74733
-1.47929
299.87
-1.89397
-8.00038
-0.0597669
-197.579
-138.699
448.992
454.211
-171.948
-138.532
-79.7414
-48.9799
453.739
429.836
-102.828
-48.4155
-17.3471
-29.1685
-17.153
-10.3024
-34.2145
-19.8718
-12.7043
-7.12064
-10.1415
-15.0343
-13.63
-21.0466
-11.4867
-20.2813
-13.0778
-2.57443
-8.34172
-1.94381
-0.155228
-1.0382
-0.105108
-8.01124
-9.48987
-6.3922
-8.04068
-14.1259
-23.6679
-11.013
-20.357
-22.5044
-9.68006
-19.4125
-13.4021
-3.46951
-2.09252
-8.70034
-3.32925
-1.38378
0.179153
-1.85681
-0.0839066
-7.52105
-3.55009
-7.0884
-3.53442
-5.94053
-0.455916
-1.2306
-24.2554
-12.1997
-25.9391
-10.3659
-21.3321
-9.21036
-27.7483
-12.0235
-24.8309
-15.0309
-20.5501
-14.6051
-27.9045
-13.5658
-2.71265
-10.9273
-3.44207
-10.1137
-3.44074
-8.99026
-4.67844
-25.6077
-13.5396
-27.5435
-11.2562
-28.4248
-16.0594
-16.5386
-27.5343
-22.7164
-29.1121
-14.2174
-30.4778
-30.2622
-28.4834
-38.3525
-15.7836
-46.4639
-42.6707
-67.4152
-27.1499
-35.012
-28.9356
-43.6383
-31.1088
-58.797
-35.3485
-63.1149
-177.519
-106.166
-71.5564
-77.3341
-213.676
-101.347
-34.2856
-63.236
-40.2384
-65.2589
-41.2096
-73.9688
-36.8184
-108.717
458.191
461.448
-90.3775
455.916
460.439
-38.7595
460.903
-29.9803
-76.4646
-33.0714
459.653
478.391
-10.3875
-25.7676
-8.74504
-27.4472
-12.4273
424.484
300.881
-1.16786
-5.94805
-0.300308
-8.61136
-0.757086
306.069
-2.96809
457.059
435.477
458.714
383.447
458.572
403.372
-8.05931
450.188
312.869
371.558
277.584
388.788
184.651
-0.0385118
301.154
302.56
-3.89759
299.155
-0.690269
441.697
454.059
376.842
458.768
440.633
454.83
465.041
306.591
433.836
297.206
429.996
287.141
454.851
242.505
-0.428847
329.524
-0.45096
305.309
0.509502
246.407
-57.656
429.759
453.137
456.737
453.126
561.329
452.762
638.391
317.156
460.591
237.393
435.001
249.15
455.335
314.025
1.35826
298.932
8.38271
145.27
305.15
-22.6052
447.345
450.706
434.705
453.617
485.858
452.652
455.425
280.261
385.568
309.954
447.629
42.4117
452.024
215.711
274.35
-0.132128
227.184
-14.331
395.992
451.613
457.66
451.837
456.434
450.968
438.174
281.901
435.14
290.942
468.826
249.069
391.608
262.649
4.98829
324.152
1.56461
200.252
287.275
-0.661009
427.486
453.317
429.038
450.212
217.186
448.464
426.988
285.023
440.815
418.898
183.103
447.233
282.017
-2.41943
0.144573
268.666
2.73818
251.638
5.56515
454.478
-153.457
-137.705
449.266
449.402
446.564
453.866
443.657
-104.194
-44.5364
449.056
428.001
452.709
-9.88128
-32.8173
-14.1149
449.235
281.65
-28.412
-11.1892
-0.0257011
-9.20927
-0.130333
299.829
2.94096
-8.8937
-0.555596
-146.738
-137.869
-124.587
445.314
-170.812
-117.686
-44.9654
-72.493
-45.0576
-33.343
-79.2144
-45.2341
-17.7546
-25.9591
-16.7805
-29.0638
-12.2684
-26.2706
-16.2142
-56.5401
-13.6606
-37.5497
-94.2621
-90.9205
-6.50956
-56.133
-39.0687
-39.2807
-35.1722
-73.4099
-38.5028
-52.9163
-37.8135
-30.302
-9.41115
-27.0161
-0.276275
-53.8842
-4.07532
-29.8106
-28.3209
-20.5557
-51.0859
-33.6619
-25.6163
-26.826
-9.83677
-25.5847
-7.94827
-35.8171
-5.70753
-23.7912
-18.9513
-24.8154
-14.3866
-33.7407
-23.2498
-24.6991
-16.6445
-7.52138
-4.11228
-4.80317
-11.4151
-9.49118
-24.4529
-7.70167
-21.1346
-9.94912
-16.1677
-13.2837
-21.2822
-15.1964
-16.8323
-12.2405
-2.81281
-10.9893
-3.05876
-8.26036
-3.26379
0.0961295
-0.663558
0.138542
-2.8403
-0.265711
-9.81257
-10.1067
-15.2899
-15.9773
-10.3706
-8.19751
-3.6122
-3.13931
-0.160214
-6.79447
-9.1138
-10.741
-8.10083
-8.77196
-12.9865
-15.8132
-10.5979
-11.7733
-11.0216
-13.6085
-15.2851
-12.3365
-11.9632
-10.0808
-14.8382
-12.8041
-8.46727
-5.5522
-8.99036
-4.97034
-9.12343
-6.05054
-1.95962
-0.415472
-4.43183
0.313829
-2.81772
-0.531381
-20.7831
-8.9903
-23.9974
-10.3732
-14.5293
-10.0605
-15.9458
-14.3018
-24.0296
-16.4648
-16.5937
-15.2228
-18.4968
-17.078
-26.8029
-8.76719
-18.2222
-11.5548
-24.6158
-17.386
-22.3072
-19.9796
-26.3878
-23.4457
-44.4807
-69.4041
-19.661
-36.0062
-85.3826
-75.626
-64.1054
-31.9706
-34.3479
-26.1221
-61.8723
-32.747
-44.8778
233.527
-235.515
95.9742
-115.475
318.133
454.571
-73.4389
-226.852
-88.4886
-154.792
-90.4022
457.917
460.388
-34.637
-75.4555
-33.3716
-68.8821
-35.8714
459.846
-13.7358
-25.7254
-11.8301
-27.1361
-14.375
-10.9828
-2.11119
-8.58925
-1.53528
-7.03277
-2.34374
-7.63468
-0.620271
-86.2992
457.314
458.949
457.676
460.325
454.794
458.08
-31.6637
458.706
418.213
459.64
442.075
456.458
436.087
-11.3897
422.812
298.407
454.63
-9.95682
441.731
227.187
-0.665429
297.837
9.42556
-7.89909
-0.403555
270.6
-1.79031
571.734
457.412
443.437
456.662
374.896
456.017
386.444
274.209
426.919
276.229
431.652
281.613
460.842
190.358
3.21314
329.245
305.142
-1.47239
287.502
-77.0254
393.889
458.011
429.115
456.511
462.51
449.041
509.009
236.073
456.337
263.15
458.263
221.997
422.239
182.044
0.185323
373.446
-23.7215
257.257
356.611
602.398
451.86
610.063
441.895
447.307
433.102
388.919
224.741
452.439
233.14
360.989
183.866
350.303
264.841
-29.3296
252.169
-23.1943
252.297
250.252
405.318
441.436
436.033
439.773
438.968
444.283
437.476
440.467
450.505
444.766
450.89
445.214
437.972
444.034
437.402
492.503
451.761
506.27
432.362
386.695
433.018
369.41
200.348
461.551
84.2854
353.666
263.807
295.415
269.296
197.792
247.842
372.472
270.102
583.627
466.97
452.941
226.198
440.617
399.984
448.679
460.533
235.225
414.804
226.11
286.864
211.97
457.995
267.517
467.152
0.758206
248.132
549.223
290.54
404.671
447.442
428.595
448.232
591.641
446.857
411.66
237.767
442.749
313.573
454.241
258.62
434.102
193.251
-18.0977
270.887
0.821338
343.824
228.27
2.86743
449.312
449.469
453.377
444.37
447.826
449.556
451.323
455.541
452.498
446.558
456.32
450.822
370.467
289.836
-10.2182
435.814
229.484
354.24
287.331
3.35916
-8.39926
-0.319068
257.75
-7.73144
284.459
-0.223814
433.157
157.426
-105.989
337.336
437.113
169.891
-205.271
453.544
-209.702
-116.36
451.513
453.39
-251.39
-114.201
-31.2652
-82.3034
-38.5711
452.019
348.112
-83.5618
-37.6201
-10.7301
-29.3911
-13.8331
403.799
296.732
-29.0378
-11.4915
-0.770695
-7.33207
-2.12318
-0.470233
-6.90445
-2.18958
-93.6154
13.8658
-201.277
-120.953
-21.2878
-54.9919
-39.1269
-36.2842
-85.5249
-40.0006
-50.7746
-35.7666
-4.53611
-35.3014
-11.3965
-41.7934
-9.29113
-24.2842
-34.0301
-24.6045
-40.5443
-33.7493
-29.2187
-25.9676
-28.2561
-8.91254
-21.5732
-8.57133
-17.6188
-8.99444
-15.1607
-21.9365
-21.7761
-16.6494
-22.1727
-20.5235
-17.9952
-16.672
-6.94951
-11.3313
-10.3905
-4.76573
-6.86573
-9.50073
-10.5942
-17.2847
-11.5512
-14.4379
-10.7906
-14.4459
-11.5093
-11.3004
-14.072
-14.8252
-11.5956
-16.0472
-13.8626
-11.2991
-10.8243
-5.88493
-8.90376
-3.64795
-9.59919
-5.93258
-8.9493
-4.49859
-0.377251
-2.78639
-0.459509
-2.76184
-0.46834
-2.96598
-0.553196
-11.3015
-12.1732
-11.3411
-14.4387
-11.0562
-10.2431
-10.0806
-10.8255
-10.1894
-3.6963
-8.89428
-4.11327
-0.221858
-3.58523
-0.290722
-10.5764
-11.9908
-10.2569
-8.85677
-4.8122
-4.54765
0.0989762
-10.4517
-7.54731
-8.1323
-15.8444
-9.37602
-7.45427
-8.01905
-11.2894
-9.53352
-11.9131
-8.86583
-10.4123
-8.96526
-11.1932
-10.2365
-14.5526
-13.6404
-12.584
-10.9669
-14.1214
-13.8628
-5.06307
-9.49802
-6.63093
-8.92539
-4.82545
-10.0932
-6.9648