/*--------------------------------*- C++ -*----------------------------------*\
| =========                 |                                                 |
| \\      /  F ield         | OpenFOAM: The Open Source CFD Toolbox           |
|  \\    /   O peration     | Version:  4.0                                   |
|   \\  /    A nd           | Web:      www.OpenFOAM.org                      |
|    \\/     M anipulation  |                                                 |
\*---------------------------------------------------------------------------*/
FoamFile
{
    version     2.0;
    format      ascii;
    class       volScalarField;
    location    "93";
    object      p;
}
// * * * * * * * * * * * * * * * * * * * * * * * * * * * * * * * * * * * * * //

dimensions      [0 2 -2 0 0 0 0];

internalField   nonuniform List<scalar> 
146404
(
-7.96191
-3.82308
-10.2333
-6.22495
-12.5998
-7.99238
-3.98569
-2.20571
-6.84976
-21.8679
-2.36517
-6.53653
-3.2722
-10.5364
-6.45889
-3.48035
-6.92463
-6.13833
-4.10707
-9.64545
-7.75472
-11.4684
-8.68308
-4.3521
-5.22527
-7.4573
-11.8498
-10.6576
-4.87192
-0.947629
-7.52013
-18.8583
-14.3792
-4.66395
-0.0819506
-6.67341
-15.9646
-11.6044
-4.62588
5.29665
-1.1301
-21.3508
-4.27933
4.35943
-5.0539
-15.4904
-11.6911
-4.94057
2.77765
-3.29759
-10.1386
-9.5798
-4.92661
1.75781
-1.80521
-8.17342
-7.91531
-4.08147
-0.0339146
-0.981989
-6.96888
-5.67876
-3.22264
-3.6255
-8.73314
-3.20522
-2.22628
-8.19367
-17.8567
-12.4249
-5.77624
3.27373
-8.34383
-25.4003
-20.1839
-7.99469
6.51737
-11.59
-33.3483
-27.0514
-9.06571
8.92369
-7.24545
-26.3316
-21.2049
-10.4843
16.1129
-6.27365
-37.2673
-10.2506
13.6434
-7.40534
-27.2062
-25.4613
-11.5947
17.3253
-5.21018
-26.2721
-23.7017
-11.9468
11.3964
-0.6205
-16.0061
-15.9492
-7.63593
9.61046
-2.5847
-12.7625
-7.6979
-4.54403
11.6117
-9.62708
-7.9655
-1.46505
9.46686
-2.24103
-1.7275
-1.24381
-9.0442
-11.9748
-15.9446
-10.5327
-4.10109
-2.08866
-11.3389
-23.8596
-12.7704
-5.5852
7.36496
-1.05253
-29.8741
-13.1301
-10.3675
14.5439
-11.7672
-36.3853
-32.9072
-12.5688
25.7761
-30.1831
-57.8915
-61.7919
-13.2952
39.1364
-31.3392
-73.9853
-53.3761
-13.3058
50.9237
5.55098
-98.3511
-13.5685
40.3043
-22.5578
-76.2272
-58.4994
-17.7698
31.8928
-17.4618
-57.82
-57.6539
-21.6464
28.7187
-1.99604
-34.2627
-37.7738
-16.0856
24.6303
4.16166
-27.3679
-11.7246
-8.93763
17.844
10.0202
-8.69281
-8.49712
-4.90372
12.1978
8.78869
-0.533997
-3.36631
-2.59323
9.59115
3.25468
-0.417994
-1.66655
-10.9213
-11.9779
-14.3877
-10.5633
-4.48293
-4.55562
-13.4318
-25.6323
-15.5941
-5.22551
1.51721
-15.2181
-33.5278
-24.8239
-8.73443
24.7514
-13.8658
-57.0493
-27.9688
-12.1744
59.7762
-20.2095
-97.5876
-115.465
-20.6158
105.237
-77.6822
-161.483
-147.814
-31.3775
120.488
-91.2282
-159.428
-153.394
-36.228
152.409
-65.8312
-138.225
-28.3158
121.325
-100.674
-158.028
-157.14
-44.5049
98.7097
-73.9598
-137.737
-177.593
-57.3065
68.2541
-1.86743
-91.3578
-148.532
-42.5591
45.9931
24.9899
-41.7214
-60.1138
-23.3145
27.737
11.2856
-16.1506
-21.4322
-11.0658
19.0872
9.61963
-3.94757
-8.22303
-4.36658
12.4478
10.5746
2.00942
-3.23421
-2.61527
-13.6268
-11.9524
-14.7712
-9.11066
-4.12239
-5.80786
-14.288
-19.378
-14.8109
-5.27056
-0.98768
-15.582
-38.4692
-24.8085
-7.98239
12.4478
-30.0307
-88.0447
-48.2597
-12.5392
58.9813
-114.459
-174.788
-130.54
-16.6969
143.822
-96.006
-153.381
-173.501
-27.0705
312.974
436.569
-131.784
-21.4707
383.777
434.861
436.116
411.07
387.093
431.897
435.574
429.415
305.412
373.298
431.278
435.005
422.856
306.939
430.475
-149.76
-46.1042
185.611
-115.545
-69.6818
83.2998
-11.9318
-70.712
-134.016
-47.9168
39.3011
8.94057
-41.7516
-58.6555
-22.1046
26.0989
16.6889
-11.148
-19.7269
-8.35112
18.4769
10.0912
-1.84901
-5.76633
-4.4974
10.793
9.95136
1.10146
-0.884689
-1.65525
-5.08062
-11.1089
-21.5579
-7.48098
-3.10374
-2.11578
-14.1588
-25.9529
-15.0679
-5.26762
6.02431
-18.8518
-44.1407
-29.3292
-8.985
37.1985
-74.6425
-125.399
-66.2128
-14.2059
124.421
-151.132
-211.291
-135.338
-18.2651
374.74
437.987
438.871
-15.0249
413.687
431.356
435.001
406.172
304.017
415.02
427.884
432.472
438.305
331.21
413.81
426.476
432.682
425.47
283.488
410.241
426.296
431.123
417.001
331.889
392.279
426.801
431.977
399.798
294.502
351.124
432.794
433.551
424.452
-60.2266
185.624
-22.7657
-66.9736
-139.709
-82.7991
66.8959
3.2735
-68.6175
-120.034
-40.1044
37.7455
18.0132
-21.8141
-29.3324
-14.3996
23.4485
14.3701
-9.02152
-9.98226
-5.20892
16.492
11.8447
-6.056
0.0490995
-1.95665
-3.67381
-8.64509
-18.024
-10.4778
-4.77415
3.98094
-3.45549
-27.7875
-13.9009
-7.20813
24.9656
-38.457
-11.0233
83.5306
-82.4684
-169.207
-119.021
-14.222
303.989
-209.737
-120.528
-8.31763
414.53
432.173
436.895
392.059
274.37
417.872
428.533
436.028
379.044
265.878
416.019
424.892
434.865
431.871
330.328
414.231
422.249
430.89
432.282
211.96
413.932
423.49
432.822
455.212
316.344
410.055
424.577
432.434
352.133
296.837
389.045
427.504
428.498
430.343
312.375
309.497
430.286
433.246
-118.815
-69.218
107.187
5.43613
-64.1985
-121.718
-47.8015
49.7503
92.8248
-177.77
-19.2024
26.1207
16.8907
-17.8301
-12.5972
-6.31165
15.3239
7.70035
-5.98005
-4.90679
-3.80065
8.96216
-1.86328
-1.90281
-1.78264
-7.26311
-10.6783
-8.5056
-4.70836
-1.3845
-7.83631
-19.6721
-13.4596
-4.6787
5.88772
-12.0429
-38.5009
-25.932
-8.24479
29.9346
-30.1477
-72.9494
-52.2733
-12.2981
99.5808
-68.3175
-182.745
-121.536
-26.0093
381.745
437.482
438.286
438.779
-0.364586
417.763
430.901
435.598
388.174
260.462
417.673
426.552
434.358
458.711
165.456
415.278
421.566
425.813
289.665
231.18
409.078
417.827
415.307
338.434
259.175
411.49
419.219
421.144
289.712
225.27
412.74
422.992
431.361
440.256
177.738
400.699
424.15
428.849
412.909
257.136
352.167
431.663
434.13
385.252
311.377
140.265
-29.3515
-76.7709
-150.667
-72.0394
39.5911
12.9264
-44.7949
-56.8422
-20.3877
23.1064
7.66667
-12.6036
-18.3414
-8.58115
15.6247
9.27304
-2.86243
-9.02524
-5.20439
7.68924
8.60359
1.06891
-2.64619
-2.84844
-13.6869
-6.9513
-10.4084
-8.57966
-4.59855
-0.976944
-7.41361
-19.2561
-13.6983
-4.8681
6.78552
-12.1661
-38.5398
-27.0995
-8.83895
31.9852
-31.7904
-76.6214
-57.1095
-12.135
117.66
-73.47
-181.052
-125.178
-28.849
386.321
438.463
437.997
421.989
418.361
431.577
436.475
442.038
331.903
418.395
426.777
442.966
450.788
204.175
413.095
421.214
419.677
331.587
278.192
409.076
417.017
406.167
339.179
268.063
407.281
419.149
414.087
334.33
263.643
413.724
423.374
429.414
455.677
212.344
403.437
424.742
429.829
442.375
261.217
356.399
431.036
432.61
416.089
314.965
148.249
-38.0631
-96.5968
-151.31
-58.7586
34.779
2.36307
-44.1622
-51.7186
-19.0621
22.7814
7.73458
-14.7268
-19.137
-8.78807
14.9071
8.98828
-3.3607
-9.80214
-5.29728
7.12432
8.12256
0.570654
-3.43714
-3.33577
-6.78287
-10.184
-7.91254
-4.64671
-2.72716
-6.63107
-15.4254
-11.8716
-4.54132
6.51326
-6.40852
-26.988
-23.0164
-9.09559
34.6481
-13.409
-67.801
-64.4149
-12.3476
127
-56.1946
-142.317
-154.74
-36.4098
376.186
437.569
438.545
414.221
-19.8281
416.453
432.373
436.291
427.809
279.167
419.534
429.074
439.213
439.074
211.734
417.425
423.797
428.167
321.658
232.429
414.095
420.635
419.927
330.919
269.988
415.657
421.848
425.394
327.937
260.199
413.04
425.98
434.368
442.505
143.969
399.738
427.712
431.058
352.423
264.972
338.836
434.88
434.768
423.194
317.647
112.301
-54.7549
-97.8222
-152.368
-31.5556
41.8818
12.417
-46.5507
-66.802
-15.4402
22.2139
11.1669
-13.2773
-18.7723
-6.03033
12.1292
7.29951
-4.55305
-7.65346
-4.74289
5.67668
7.35175
0.221437
-3.43291
-3.04729
-0.623989
-6.88617
-16.9222
-8.19884
-3.8379
8.06554
-4.44616
-26.9609
-7.84573
-7.55132
27.4621
-19.843
-12.4955
76.4025
-44.9703
-132.145
-162.744
-27.7012
289.473
-137.115
-150.175
-30.8079
398.248
434.062
437.047
438.179
292.487
416.448
430.779
436.373
434.393
228.729
418.673
429.155
434.161
453.703
323.532
418.488
432.554
441.526
442.361
228.41
414.935
427.738
434.614
431.087
261.451
408.552
427.788
432.157
374.301
260.807
385.288
432.38
431.913
373.863
300.359
291.624
433.28
435.196
-168.783
-39.5538
67.1008
-44.2761
-121.542
-194.28
-17.4552
28.146
-4.88973
-88.0396
-10.4038
15.5166
19.3869
-21.8922
-17.8833
-5.37052
9.29722
10.5942
-9.03571
-8.54957
-3.92228
6.5182
-3.43228
-4.15462
-2.70106
-3.70858
-8.32601
-18.4245
-8.08128
-3.57277
1.11763
-8.89513
-19.1177
-14.0474
-6.16757
10.244
-11.5203
-35.5736
-32.0681
-10.4275
37.6759
-33.7719
-85.5845
-78.5125
-18.9859
131.821
-67.4794
-146.537
-156.838
-36.3831
334.749
439.49
440.234
-39.2619
393.636
434.561
436.372
430.464
264.441
405.747
430.51
434.75
447.411
252.398
407.774
430.054
438.954
359.495
166.583
402.781
429.764
433.552
442.017
263.348
384.986
433.569
432.302
404.068
290.028
338.229
435.243
435.735
341.102
-6.8063
93.7648
-110.285
-178.703
-162.532
-20.4294
12.7803
-17.6155
-48.1481
-41.3043
-14.3873
5.43027
-7.02746
-32.3685
-27.4235
-7.11312
4.07774
-8.61473
-18.934
-12.1953
-5.38856
2.14051
-6.42033
-18.097
-5.93262
-2.76219
-11.6759
-7.61718
-11.3503
-7.94054
-4.20442
-3.59155
-7.94182
-13.0765
-10.9603
-5.21999
2.91486
-7.17669
-23.1127
-17.9582
-7.06214
17.9398
-9.91402
-38.521
-43.0884
-14.0842
52.6887
-31.9858
-108.916
-133.181
-21.2752
121.838
-52.748
-98.6757
-164.089
-52.9087
282.686
436.171
-113.326
-152.289
-34.2293
352.531
435.872
438.291
393.436
361.623
436.113
438.975
402.433
318.012
350.896
435.644
437.256
422.874
281.914
436.513
-159.031
-23.4167
96.4991
-185.124
-14.5894
35.2488
-34.3238
-90.8725
-80.7008
-13.3809
4.6714
-8.8159
-28.3242
-22.345
-7.46546
-0.742964
-8.47962
-17.5068
-12.7368
-4.89661
-2.36752
-6.87741
-13.0988
-10.3752
-4.67557
-5.71289
-6.21768
-10.8961
-7.45343
-3.67384
-7.63799
-7.09513
-10.395
-8.52163
-3.90085
-2.06071
-6.65814
-15.128
-11.2549
-4.79181
5.81716
-6.65841
-23.9126
-21.2521
-7.21747
22.9713
0.413353
-46.8878
-34.0015
-11.1596
38.1139
-21.3655
-77.566
-102.085
-15.8414
53.8387
-58.1653
-132.694
-126.36
-16.4904
71.9602
-114.639
-141.986
-123.885
-24.7421
81.6513
-123.773
-165.385
-21.862
71.9189
-112.133
-158.155
-121.441
-11.7617
49.5511
-59.9066
-137.159
-111.912
-14.0522
30.9745
-14.3716
-83.5124
-103.083
-10.183
14.554
-7.9859
-54.3673
-29.6104
-7.32395
2.50172
-7.70058
-23.4249
-18.8367
-5.29061
-2.70564
-7.66815
-14.833
-11.9724
-5.09316
-5.993
-6.78217
-11.0906
-9.5049
-4.59473
-5.11409
-7.45649
-12.9117
-8.74687
-4.0714
1.32611
-5.51145
-20.0414
-11.6085
-5.03638
5.05999
-6.16022
-27.4741
-12.0457
-6.29645
4.85614
-9.15562
-25.6566
-23.0841
-9.69745
6.81833
-14.7231
-35.6248
-28.1503
-10.7823
20.9483
-18.2076
-46.6885
-42.4959
-11.3473
26.5628
-23.3918
-53.5728
-10.8221
7.61754
-20.4371
-50.4338
-25.8666
-9.72745
3.99153
-11.0116
-29.0098
-23.9017
-9.65144
5.94719
-8.83322
-28.3753
-26.6483
-6.53311
2.9147
-4.08948
-29.5065
-17.2899
-4.73566
-1.48354
-6.24321
-20.9249
-11.0449
-4.09657
-6.02613
-7.49134
-12.7768
-9.21509
-4.53863
-6.89187
-9.84933
-7.77434
-4.40755
-3.17306
-2.06035
-3.20975
-3.44531
-7.79703
-14.5959
-10.0634
-4.95182
-0.875231
-6.74761
-16.1535
-14.5436
-6.42514
-1.20039
-8.09372
-19.5056
-14.6035
-5.22305
2.74112
-8.02462
-22.8353
-18.863
-5.18357
6.421
-9.81337
-20.1905
-4.85237
-1.04727
-12.4487
-24.5934
-12.9092
-4.89281
-0.0566897
-8.73998
-17.1783
-13.0544
-5.08161
-3.43545
-9.06513
-16.7205
-13.4069
-5.76347
-5.03218
-9.086
-15.8662
-10.3875
-4.59909
-3.9293
-1.29306
-22.9122
-12.4205
-3.36651
-14.0969
-6.4397
-3.58071
-11.0012
-7.25559
-11.0228
-7.55553
-4.01355
-7.35889
-7.28253
-10.6264
-9.36809
-4.7564
-5.57641
-7.05188
-13.1569
-10.6224
-4.81558
-3.87729
-7.87505
-15.3531
-10.4297
-4.7388
-0.610777
-9.80791
-11.5596
-4.63429
-4.54954
-10.8206
-16.0386
-10.1951
-4.62122
-7.44305
-9.69175
-12.9784
-10.4461
-4.67863
-8.73243
-8.9372
-12.2966
-10.2864
-5.03128
-10.8222
-8.53752
-12.1194
-8.64011
-4.38195
-12.464
-7.08356
-12.0764
-8.53548
-4.25095
-9.73601
-9.91128
-5.78743
-3.19095
-12.8723
-9.13978
-14.419
-8.82376
-4.24705
-8.47426
-4.6263
-10.756
-11.388
-9.21
-8.17212
-4.95231
-4.08941
-0.330992
-7.31444
0.231727
-11.4492
-11.026
-19.5219
-11.9273
-9.32849
-20.0257
-10.2056
-8.04565
-4.81409
-10.4539
-3.15229
-3.99896
-0.347412
-2.83222
-0.33475
-6.89868
10.5905
-1.58165
-6.48711
-2.79373
-10.2958
-10.803
-7.64289
-22.345
-2.8459
-6.12684
-3.90903
-2.58184
-0.307678
-3.38443
-0.38103
-2.30628
-3.29597
-9.57163
-10.1596
-7.57796
-6.15735
-4.04536
-3.47727
-0.380276
-7.36531
-7.65088
-10.9369
-11.3736
-9.33537
-8.25976
-5.09632
-4.29354
-0.268214
-13.5221
-7.42302
-8.6823
-7.03316
-7.65118
-10.7193
-7.44717
-9.54215
-11.1293
-9.31012
-10.673
-9.97265
-8.25641
-5.20096
-9.00143
-6.05063
-4.40065
-0.306182
-4.61141
-0.800564
-7.84052
-6.74409
-5.62752
-6.05753
-7.17428
-9.4599
-6.83986
-10.1261
-10.5642
-10.2928
-11.8194
-11.1981
-9.38327
-6.41318
-10.4658
-6.92408
-4.83814
-0.858554
-5.19083
-1.00113
-10.6971
-5.93874
-5.28572
-5.48889
-4.01125
-4.5987
-6.33987
-10.571
-6.6059
-9.3444
-6.5112
-10.6351
-9.82577
-11.532
-9.97031
-12.5684
-11.8994
-14.2441
-13.3384
-5.78807
-7.95983
-5.3258
-10.1446
-7.53127
-10.8407
-7.80806
-4.0078
-0.646341
-4.45753
-1.74616
-4.56737
-1.79626
-5.64696
-3.24608
0.523988
-2.58512
-3.39563
0.403055
1.46289
-11.6917
-7.7984
-19.877
-6.99773
-11.7275
-12.5377
-23.1676
-10.29
-20.2907
-11.512
-13.9577
-12.4345
-24.1968
-14.4209
-5.25656
-5.78775
-3.92534
-9.14593
-7.28666
-6.44546
-4.24617
-0.721692
-3.05756
-0.658265
-4.73496
-2.00865
-3.46828
-1.57153
5.63029
-6.16508
-1.44304
2.72444
11.4124
1.20062
0.432686
-3.04
-9.98005
-2.13578
-2.69625
-11.3571
-10.816
-8.30711
-16.5543
-12.4694
-11.5206
-2.94605
-6.00756
-4.2966
-20.6708
-5.24418
-8.92142
-5.87559
-0.512517
-3.35406
-0.675695
-3.9752
-1.5851
-4.43416
-1.98295
-2.41239
-2.38561
0.572877
-0.89357
0.0266277
-1.27231
-9.49353
-2.68968
-6.65419
-4.35822
-9.33435
-4.14386
-7.22968
-8.64062
-7.31565
-6.98748
-12.5225
-11.6406
-9.67296
-9.27057
-4.48512
-6.26389
-4.43527
-8.13033
-5.94548
-8.38004
-6.43266
-0.666347
-3.90062
-0.397969
-4.2568
-1.83653
-4.38257
-1.90703
0.314153
-0.971783
-0.523992
-0.773987
-6.19756
-2.98327
-5.46807
-1.86746
-5.48982
-6.72812
-8.19489
-8.70755
-7.01792
-7.88396
-4.5019
-7.72402
-5.99396
-7.45484
-5.47495
-0.378327
-3.93213
-1.71945
-4.2849
-0.862917
-0.82972
-0.739303
-2.20603
-0.39667
-1.70776
-5.22389
-0.848877
-4.85922
-6.71595
-7.39114
-6.392
-6.40217
-6.99185
-5.06841
-5.60278
-4.22849
-4.04433
-0.795495
-3.45867
-0.68077
-2.78885
-0.268406
-0.72379
-5.70326
-6.42896
-6.2136
-5.61167
-3.82626
-3.37736
-0.351417
-8.11838
12.0144
-5.51995
-3.8164
-3.09595
-0.556206
-11.8704
-7.30878
-6.30632
-1.97046
-5.74938
-5.56821
-7.60129
-11.4008
-7.97664
-8.53373
-13.7206
-12.016
-10.1908
-14.1177
-15.5203
-13.5463
-8.12542
-5.31919
-3.09185
-4.72038
-8.73563
-5.91165
-4.01439
-0.638728
-3.522
-0.654187
-3.89554
-1.59011
-7.15913
-6.59642
-6.35218
-5.15816
-5.27579
-3.81193
-4.95853
-10.7031
-7.77731
-9.85456
-8.17193
-12.4208
-7.84993
-11.8418
-10.3423
-11.8126
-11.7929
-14.6067
-13.8424
-14.7022
-14.3906
-5.85761
-9.4894
-7.4538
-10.3561
-7.53752
-11.8387
-8.71836
-0.767687
-4.23297
-1.73833
-4.93628
-2.1346
-5.30587
-2.19268
-13.037
-12.4522
-23.9929
-6.79044
-15.7264
-4.57007
-33.1773
-15.2196
-25.3316
-15.6019
-20.428
-19.6496
-34.446
-24.0682
-2.516
-12.683
-6.60404
-1.01478
-17.6569
-18.1585
-13.9168
-13.2955
-27.1402
-20.4557
-20.2611
0.941159
0.127395
0.179563
5.9927
3.21517
4.98464
3.57737
0.437516
5.10689
3.79674
7.64276
7.06364
-5.72708
-2.15904
-8.23764
0.0307056
-15.0527
-6.82111
-10.6413
-9.60903
-14.8637
-7.34829
-3.99595
-6.59771
-4.63572
-2.55342
-3.57116
-0.670074
-3.48474
-1.57183
-2.45674
-0.597322
8.20434
10.0939
0.644954
-16.8769
10.0721
-2.5812
-17.0133
-7.13386
-4.2328
-3.60042
-4.65015
-1.05887
-2.17749
-0.781174
-1.21989
-0.368204
-0.856381
-0.323035
-12.4242
-10.8732
-11.5369
-13.6664
-14.2022
-11.2127
-9.39704
-5.63125
-4.2605
-0.746393
-6.59567
-2.22671
-10.7431
-10.2398
-6.57102
-7.51852
17.5672
-11.9279
-14.534
-11.8004
-20.0245
-36.6644
-15.2983
-13.0856
-20.3148
-13.9589
-1.36702
-4.46928
-8.8359
-6.22634
-8.63887
-6.30066
-3.30273
-0.624342
-3.81827
-1.55585
-4.01298
-1.67386
-7.14651
-17.1383
-11.2722
-23.2946
-2.39634
-29.6696
-18.1004
-14.7594
-23.2365
-14.0291
-28.6214
-21.5101
-20.3891
-4.65671
-35.7357
-12.8784
-31.8869
-5.98247
-68.0218
-27.6304
-36.9386
-27.2735
-41.7044
-43.2943
-63.6384
-57.8663
-0.894904
-21.0107
2.32567
-0.170683
-40.5743
-30.6812
-24.235
-25.6983
-66.7236
-46.7422
-48.7427
-11.6755
-1.02832
-16.0974
2.66473
-20.782
17.1402
-9.24509
-11.8543
-16.1673
-6.99776
-23.1354
-19.1518
-11.5996
-11.7865
11.0774
4.80408
10.5511
14.3861
15.7726
12.0274
11.9755
9.78323
-1.14648
13.6046
-4.55933
8.76337
2.07309
-7.50849
-4.06203
-4.02337
-9.31593
-10.1699
-3.62655
-5.00788
-1.75832
-1.76202
-1.39923
-6.88799
-3.81184
-3.79569
-2.9912
-0.809086
-1.21981
-0.418718
-3.08401
-1.39763
-2.72426
-1.32656
10.3273
10.7993
10.5008
9.82055
-0.605907
9.09443
2.31088
9.35238
4.20938
-2.8874
-0.539486
-2.98828
2.88179
-0.667588
-1.38788
-3.0499
-2.42006
-0.58237
-1.80359
-0.414728
-2.32521
-0.586683
-1.63107
-0.409617
-14.8993
-11.7521
-11.5747
-12.6093
-12.9752
-10.8762
-9.41127
-6.0502
-4.5221
-0.705861
-11.4789
-10.8411
-13.0858
-11.5522
-10.0008
-10.4876
-11.8137
-13.0421
-11.7373
-13.0185
-12.103
-14.1516
-14.0146
-12.5592
-13.2693
-11.4352
-15.2076
-13.8119
-9.66387
-7.1975
-9.84856
-6.36728
-10.764
-7.79726
-4.20199
-1.7011
-4.5974
-0.788871
-4.38646
-1.73335
-23.9787
-4.53767
-34.1159
-13.4185
-24.0178
-10.9026
-40.0503
-17.7831
-30.8458
-28.226
-27.46
-24.7619
-41.989
-33.5501
-30.6942
-9.73528
-28.2632
-7.93168
-49.6661
-5.68263
-53.5679
-22.6683
-31.7297
-33.6376
-49.6575
-36.7128
-63.446
-66.247
-55.2681
-4.35174
-79.6488
-87.5395
-132.053
-65.9049
-133.187
-74.5924
-74.7163
-74.7151
-152.108
-142.453
-146.934
-161.034
-6.03381
-54.9308
-17.4052
-73.6076
-141.163
-85.8664
-65.3194
-69.9589
-153.337
-162.575
-167.899
-21.647
2.881
-24.1608
2.50972
-58.6097
66.4631
-38.8872
-28.1888
-27.3915
-76.4093
-105.701
-83.5813
-25.6139
16.4256
-7.61567
35.5024
-38.2667
16.5802
-5.94736
-19.8544
-12.8582
-14.1773
-39.0794
-57.9212
-13.1267
-21.1734
12.0501
4.99484
10.3034
15.1949
13.4048
12.4059
11.9988
4.62569
9.28782
5.038
10.2004
4.54443
10.0649
6.46882
-2.91472
2.44866
-0.736681
-1.38181
-4.75468
1.40445
-1.70627
-3.11476
-0.815175
-1.98868
-6.2594
-4.89203
-3.78421
-3.64361
-1.2802
-1.76917
-0.530302
-3.92082
-1.82994
-2.83854
-1.35992
9.98723
10.9993
10.9885
4.61269
10.1887
5.31517
-0.415462
2.48102
-1.17555
-1.85731
-2.35727
-2.28892
-0.404904
-2.20968
-0.582247
-12.1644
-14.1797
-14.2276
-10.1065
-9.56404
-5.07544
-4.66453
-0.172809
-13.5718
-11.6486
-17.2019
-11.6734
-10.2853
-11.1431
-11.7571
-12.9636
-11.8782
-14.0213
-12.305
-13.843
-13.2919
-11.4067
-14.0666
-10.2115
-14.5637
-13.088
-9.85436
-6.34734
-9.37366
-5.18384
-10.0127
-7.07755
-4.65712
-0.776356
-4.49915
-0.227547
-4.04578
-1.55336
-55.9027
-8.43287
-72.3782
-45.8445
-97.7751
-83.3526
-138.583
-48.0631
-79.4959
-105.756
-112.502
-113.165
-142.607
-191.107
-84.4114
-85.4755
-108.895
1.13035
-85.4755
-129.108
-113.119
-127.459
-161.997
-181.171
-131.312
-138.471
-120.057
-81.6359
-139.329
-131.978
435.032
437.34
-181.475
-156.401
-171.86
-134.97
-142.889
436.67
-76.1403
-142.981
-72.2312
-130.972
-61.0184
-47.4675
-6.40634
-34.0121
-8.49974
-30.7253
-5.73294
-28.3433
-1.16665
-94.5204
151.671
-116.726
337.113
430.627
350.938
426.72
-143.668
-87.5558
-133.79
436.218
437.212
433.385
436.301
-171.678
-147.098
-152.278
436.502
387.927
435.966
365.572
-73.6988
-142.265
-58.8497
418.846
-41.9441
443.09
-7.91208
-28.0971
-5.47027
-27.8536
-0.0640402
2.66002
-102.371
129.42
-121.238
350.648
426.886
341.98
424.186
-106.929
-138.114
433.269
435.63
432.657
435.839
-142.928
-160.976
-172.495
435.362
402.134
435.449
360.028
-57.0525
-153.634
-79.7699
428.438
405.976
-44.4981
-5.51389
-38.5666
-8.86723
4.0903
-27.1732
1.61715
-137.19
-67.724
-115.021
433.298
436.027
432.144
-176.75
-139.341
-192.914
435.557
385.634
-161.248
-90.2484
-162.19
-104.337
417.123
-46.8655
-156.256
-77.5598
-9.62709
-51.4177
-11.8195
-28.0342
0.329299
-43.3734
-2.8844
-84.3374
-49.6999
-86.8836
-112.83
-73.9964
-90.2261
-182.441
-113.868
-158.755
-122.382
-156.853
-102.506
-149.356
43.4637
59.1353
50.2837
115.031
42.3324
84.3991
44.5437
-74.3045
39.6652
-52.3764
9.04258
-62.3651
-137.854
-51.4248
-90.4981
-81.1763
-122.652
-131.684
-96.8492
-92.5198
-136.085
-150.844
-135.791
-144.45
-24.5368
15.125
-4.09325
3.38633
-32.8056
10.4608
-12.7684
-63.784
-22.1015
-32.0401
-69.3165
-110.52
-38.6669
-57.751
11.4823
15.0501
13.1126
11.4508
11.5066
6.99475
10.4237
5.86225
10.2114
4.53697
-0.953082
0.528371
-2.479
2.05923
-0.883231
-2.81142
-4.35188
-3.66901
-1.0829
-1.77922
-1.29856
-3.138
-1.47474
-1.74532
-0.569013
10.1521
11.0449
10.3543
3.73172
2.41865
-0.448354
-0.27376
-1.29772
-1.59938
-0.295416
-17.7899
-12.2685
-9.72928
-8.03166
-12.4483
-14.6156
-13.2502
-19.7144
-14.5933
-9.93853
-19.3087
-11.2377
-9.06847
-4.85931
-7.08314
-4.72053
-5.12402
-0.220612
-3.61369
-0.60677
-11.3196
-9.21383
-10.1961
-8.45231
-9.28482
-6.78527
-9.02594
-14.8389
-13.0516
-15.7113
-13.8265
-18.5845
-14.0169
-18.41
-11.4635
-16.6685
-14.6516
-17.9623
-14.2295
-19.2135
-16.3223
-5.69823
-11.1521
-7.91587
-7.94652
-6.02039
-10.7037
-7.48817
-0.61851
-4.51957
-1.78921
-3.60664
-1.46398
-4.57773
-1.88263
-152.702
-108.327
-137.047
-124.053
-212.454
439.037
-179.32
-155.605
-194.548
-219.514
-182.871
-183.733
-136.626
-132.614
438.991
439.589
433.115
437.224
-179.707
-133.347
-137.81
439.385
-175.096
435.488
375.996
-69.5874
-131.053
-49.5562
-144.048
-35.8474
423.523
317.637
-4.0592
-21.9822
1.10134
-16.6708
1.84792
314.657
434.751
437.399
433.626
436.144
430.977
434.317
-141.154
436.605
461.575
434.265
406.093
433.444
415.796
-50.0624
425.341
407.095
314.832
419.279
345.112
1.7047
-25.3957
1.12479
317.078
19.077
274.693
7.76541
436.673
432.627
434.427
428.217
432.999
427.388
431.615
402.739
435.948
344.228
433.127
413.355
432.344
442.341
452.123
348.74
439.557
311.152
444.862
246.643
1.18024
326.543
2.67651
244.263
2.11592
303.639
2.0986
433.78
431.882
435.344
426.687
431.125
426.184
430.93
404.144
434.668
392.318
432.351
434.433
430.728
475.289
320.146
412.285
323.641
425.838
298.461
372.24
292.97
3.16466
1.94957
296.363
294.336
5.76882
435.596
432.101
435.433
427.341
431.685
429.652
432.928
374.071
434.758
-161.885
431.208
415.931
430.612
377.496
-152.833
-67.1904
353.531
225.713
411.28
278.492
1.55796
-47.7046
-0.545492
238.975
5.96867
311.077
-7.12542
435.247
-71.9382
427.664
433.293
434.054
434.259
-161.309
-133.869
432.663
549.653
433.261
411.079
-75.5287
-104.148
-103.951
404.621
319.553
395.73
-81.2636
-4.05729
-73.008
-19.0653
301.134
-13.234
-62.2245
-19.7062
-43.8326
-57.4284
431.464
434.48
-29.6684
-62.1819
-84.751
-116.334
433.887
410.447
-72.7669
-121.071
-133.55
-143.133
-138.548
-87.8057
-138.858
-131.625
11.6089
15.0421
14.1576
3.55801
10.5673
-2.19314
-0.993984
-4.29639
-3.08136
-1.36647
-0.821745
-1.15159
-0.496884
-1.6375
-0.534954
-7.68137
-7.23821
-5.44535
-3.73732
-12.7118
-22.1215
-5.67656
-17.3932
-21.2143
-9.10473
-18.1441
-14.0732
-3.96458
-4.43108
-9.8423
-5.31021
-3.32149
-0.619087
-4.14689
-0.770734
-6.07401
-3.80745
-7.60917
-2.98498
-2.6003
-0.436119
0.364527
-22.1852
-13.1581
-24.4118
-5.27481
-17.9783
-5.14956
-26.6618
-11.351
-24.0047
-17.5021
-18.9305
-15.5596
-28.3757
-13.8051
-5.50491
-13.5951
-6.67057
-12.0362
-6.07012
-7.15832
-8.67513
-25.5554
-16.7715
-33.0504
-6.16128
-28.9733
-24.5958
-20.4013
-35.2715
-31.1821
-30.3033
-15.0036
-42.5531
-37.4036
-34.5774
-56.4879
-24.9571
-65.5211
-43.6617
-124.54
-42.0244
-67.17
-61.7736
-61.2729
-51.5254
-134.044
-105.902
-114.322
-148.223
-182.222
-76.5594
-169.025
-146.635
-210.005
-108.338
-190.69
-159.777
-188.559
-179.453
-223.931
-166.929
-217.155
439.042
439.908
-213.65
434.472
438.625
-164.626
439.519
-171.772
-215.218
-146.724
437.929
459.249
-43.0463
-139.809
-31.8078
-103.297
-25.0495
406.421
292.891
-3.00798
-10.1906
1.23665
-14.4099
1.67469
304.99
-2.44048
436.654
417.546
437.318
371.735
436.997
388.065
-30.6125
433.021
314.835
353.265
273.372
381.995
154.435
2.48748
304.384
302.067
-4.55553
287.135
-0.436527
423.036
433.672
362.205
437.037
412.226
434.42
452.209
309.577
417.967
300.178
420.99
274.377
439.928
258.669
1.38028
334.588
6.9555
294.213
-1.93729
251.194
-67.355
415.157
432.412
440.466
433.122
558.598
432.022
620.247
318.776
443.928
223.308
424.18
260.31
435.586
278.586
-0.431022
303.488
4.53965
147.196
274.38
-36.0427
430.607
430.792
417.554
433.08
467.769
432.658
430.133
274.138
365.933
305.599
429.917
8.35176
437.92
196.315
268.605
1.05956
196.418
-84.0518
377.57
431.524
443.267
432.309
443.783
432.319
428.213
275.932
423.988
297.387
453.675
232.435
385.052
228.404
5.33247
334.975
-2.41904
161.367
264.863
-1.25549
413.214
433.234
409.074
431.873
209.785
429.954
409.563
290.937
417.754
400.871
147.67
431.819
286.324
-24.0099
-14.1408
273.643
-0.202115
258.171
-2.49993
434.425
-22.3623
-59.0207
431.419
430.476
430.995
433.915
420.591
-70.6345
-119.041
430.193
409.566
433.062
-81.8494
-131.316
-118.539
432.19
285.607
-120.464
-93.5973
-23.8578
-85.98
-19.0692
312.614
-4.72387
-78.924
-23.3658
-57.2382
-20.4883
-40.8073
429.874
-16.166
-53.8736
-125.057
-63.7701
-105.966
-115.949
-70.7112
-100.423
-135.293
-134.361
-138.762
-119.747
-102.687
-131.53
-137.879
-27.3099
10.2
-10.9022
1.13659
-54.5288
29.2024
-39.423
-99.9413
-38.9397
-58.018
-64.203
-110.142
-44.015
-69.5678
-4.06334
13.7249
-4.92739
36.0516
-33.0852
19.059
-29.3888
-10.0361
-14.9079
-38.0304
-58.6671
-27.7241
-4.83305
14.474
-3.74561
13.2399
-23.2348
13.9959
-8.28929
-12.1671
-5.72885
-5.24986
-21.4247
-22.215
-11.8894
-9.71725
16.6238
16.5233
16.0813
8.25977
11.4408
-5.43939
12.1163
-5.0249
9.66251
-1.73912
-4.28893
-8.20031
-8.1323
-4.17785
-3.83456
-0.844735
-5.48089
-1.31542
-1.57298
-1.26926
-1.0395
-2.41558
-1.18664
-1.33513
-0.459859
11.18
9.47929
-1.31646
-2.72744
-3.0746
-1.83802
-1.42644
-1.40244
-0.362298
-5.68434
-5.57471
-7.24749
-6.44594
-6.3598
-8.7647
-12.8191
-7.26824
-10.3506
-7.99997
-11.161
-14.7785
-13.0795
-10.9319
-9.28944
-13.7357
-12.8256
-8.64324
-6.05025
-8.42048
-5.35407
-9.73603
-7.0556
-3.97287
-1.67755
-4.63012
-0.206534
-4.4868
-1.85511
-17.2259
-5.34054
-21.8276
-7.19421
-12.3964
-7.66177
-15.0756
-16.2132
-23.3212
-17.7097
-16.1035
-15.828
-20.3367
-19.3216
-25.5384
-6.88045
-19.8535
-11.1537
-29.644
-19.1417
-27.0067
-26.7902
-39.1139
-36.3062
-45.1879
-141.532
-14.1395
-53.6309
-53.4704
-149.593
-148.034
-117.255
-61.2237
-59.9802
-175.941
-153.187
-38.1145
232.802
-140.906
115.069
-55.6597
313.562
433.143
-158.848
-144.619
-198.612
-78.2064
-153.404
437.044
439.901
-181.76
-205.941
-166.051
-188.127
-169.76
439.384
-42.3884
-116.92
-28.7137
-148.441
-58.154
-20.2588
-2.96991
-15.8371
-0.422769
-15.235
-3.03472
-5.83027
2.05954
-205.123
436.001
437.603
437.111
439.182
434.06
436.742
-147.559
437.278
403.18
438.397
421.078
435.855
420.892
-19.9234
406.11
290.815
430.357
-6.14374
427.267
215.271
3.03799
292.882
1.75879
-0.333681
3.47891
270.321
1.19101
558.638
435.617
427.598
435.9
358.236
435.428
364.223
268.298
415.693
254.403
416.408
276.817
444.12
13.8988
1.22414
319.2
308.582
4.38732
228.888
-114.867
384.741
437.238
419.493
435.564
440.726
429.638
492.312
203.295
439.487
265.097
438.116
136.472
402.103
166.874
0.0431863
356.376
-24.5041
208.423
326.812
583.987
431.039
593.977
427.135
437.918
421.654
373.789
224.207
432.714
210.896
340.413
165.222
327.167
269.249
-27.8264
232.026
-32.6385
224.768
271.306
534.452
417.244
413.597
417.07
411.011
415.36
412.445
414.749
429.313
422.432
429.789
419.051
421.968
419.746
422.703
472.372
431.618
492.182
420.819
374.443
422.051
349.827
178.665
451.908
70.8418
329.719
267.93
275.895
238.897
162.781
268.759
496.864
238.996
765.86
454.128
433.776
212.22
425.161
394.518
429.449
432.744
211.275
395.35
195.636
264.641
185.822
441.652
237.038
374.16
-2.04444
211.206
723.954
266.432
392.399
429.036
410.797
431.184
551.105
429.485
403.313
182.473
429.291
327.066
439.131
233.71
426.835
211.324
-29.7839
284.366
-1.62559
315.496
235.332
-2.53707
430.547
432.865
433.856
425.851
429.506
431.643
432.866
440.634
433.036
429.025
444.265
431.891
356.447
302.389
-88.0308
424.29
235.852
342.353
295.989
-7.61902
-74.3346
-24.7237
260.9
-25.6548
298.02
-24.4498
422.935
186.642
29.5608
337.117
420.795
200.694
-37.2602
434.164
-31.9099
-54.9499
433.673
434.569
-45.5733
-46.5082
-116.427
-71.3164
-106.185
433.188
324.716
-51.8105
-118.808
-93.7581
-119.635
-131.317
388.496
300.245
-130.676
-121.691
-23.3294
-84.0379
-28.8682
-30.5284
-80.663
-29.646
-59.9744
52.9967
-26.8415
-44.4464
23.3425
-40.0471
-111.095
-101.881
-60.7634
-136.599
-53.8419
-119.609
19.0115
-20.7454
25.2428
-26.56
13.7412
-6.50757
-21.7874
-25.4089
-41.1187
-84.3782
-21.5196
-31.8065
-11.3687
10.9832
-5.54931
11.9917
-0.643793
10.3813
0.83836
-18.3584
-8.87449
-9.80518
-12.5559
-16.7385
-7.62445
-11.2718
13.9809
8.29984
11.1203
15.0561
13.2004
9.92341
9.89584
-0.516527
8.50819
-0.47777
8.65691
1.91434
8.3768
2.56426
-6.72045
-2.89499
-3.67403
-3.82018
-6.24257
-0.00650957
-3.15908
-4.03896
-2.40929
-2.20583
-6.63816
-5.46614
-3.20476
-3.19671
-1.83365
-1.93693
-0.580819
-4.38273
-1.94685
-2.72276
-0.68136
10.5118
6.9861
9.38336
-0.458237
8.64289
2.18699
-2.73415
0.844949
-2.57473
-1.94229
-2.6192
-3.06482
-0.443071
-2.77486
-0.407767
-9.40813
-10.2738
-9.04065
-8.38075
-5.66308
-4.77393
-0.221238
-7.22295
-5.74643
-6.06346
-13.7122
-7.03385
-5.33311
-5.78918
-10.0658
-7.14335
-10.2273
-6.99437
-9.48046
-6.80424
-9.83525
-9.35749
-13.6264
-12.8418
-10.5614
-9.86734
-13.4572
-12.8699
-5.49268
-10.7269
-7.96307
-8.63981
-6.14286
-11.025
-8.24808
-0.227266
-4.81892
-1.95007
-4.56099
-0.737082
-4.91942
-1.9756
-156.752
437.688
439.662
-80.0908
-156.815
439.531
439.317
-165.28
439.197
-181.195
-151.755
438.784
431.618
-59.1667
-21.1142
-124.16
-61.9571
435.605
-36.9307
-4.30088
-8.97633
2.31265
-30.6732
-6.88854
-25.4752
0.0203163