/*--------------------------------*- C++ -*----------------------------------*\
| =========                 |                                                 |
| \\      /  F ield         | OpenFOAM: The Open Source CFD Toolbox           |
|  \\    /   O peration     | Version:  4.0                                   |
|   \\  /    A nd           | Web:      www.OpenFOAM.org                      |
|    \\/     M anipulation  |                                                 |
\*---------------------------------------------------------------------------*/
FoamFile
{
    version     2.0;
    format      ascii;
    class       volScalarField;
    location    "62";
    object      p;
}
// * * * * * * * * * * * * * * * * * * * * * * * * * * * * * * * * * * * * * //

dimensions      [0 2 -2 0 0 0 0];

internalField   nonuniform List<scalar> 
146404
(
-7.81845
-3.55021
-11.7819
-7.47585
-13.0586
-7.91784
-4.01517
-3.90605
-7.30986
-21.5464
-2.21468
-8.38095
-4.93035
-11.5233
-6.76511
-3.41812
-8.19067
-6.66256
-4.1529
-10.5324
-8.52808
-11.6267
-8.23466
-4.07016
-6.56277
-8.51278
-12.1853
-9.91638
-4.3694
-2.70903
-9.02723
-19.3224
-12.6716
-3.82799
-1.96175
-8.01948
-16.4821
-10.7158
-3.9848
3.23105
-1.5305
-20.6489
-3.87717
2.06343
-6.65403
-16.1881
-10.8592
-4.2365
0.200898
-5.11699
-11.4136
-9.97722
-4.83494
-1.11673
-4.0116
-9.67193
-8.65484
-4.11164
-3.27279
-3.44949
-8.70665
-6.97649
-3.78234
-3.5684
-7.82986
-2.83183
-3.08879
-9.10511
-17.68
-11.3703
-5.26279
1.50934
-9.80199
-24.9625
-17.6009
-5.74169
3.6055
-11.877
-34.3788
-23.449
-6.92888
5.99617
-8.79096
-27.1907
-17.9046
-8.32517
13.1501
-7.6915
-33.7627
-8.80459
10.6652
-9.25892
-27.8916
-24.5006
-9.47418
12.9717
-6.87204
-28.6193
-24.9023
-9.97181
7.66369
-2.68438
-17.2642
-16.5162
-6.90435
5.14409
-4.55973
-14.5899
-9.6836
-4.87974
4.9519
-3.54949
-12.1617
-2.34938
0.658953
-9.08881
-5.15184
-2.67806
-8.11548
-10.7392
-14.7191
-9.1507
-3.38829
-1.37926
-9.5989
-22.2524
-11.3576
-4.45805
6.68129
-3.15977
-29.2454
-10.8423
-7.51138
12.0718
-12.4931
-34.3056
-26.4975
-8.63671
20.8726
-32.107
-54.4771
-45.2
-9.57143
35.0931
-33.5201
-68.8242
-39.303
-10.7283
46.4311
-0.4073
-76.1217
-12.0873
37.2681
-24.5579
-71.0078
-50.5781
-14.4745
27.6023
-23.5477
-59.4499
-53.992
-15.8682
23.6429
-4.45717
-34.9638
-37.6635
-13.5113
17.5383
3.68701
-28.2364
-15.5352
-9.09372
8.96277
0.0298392
-15.1488
-11.2879
-5.68789
3.0399
-0.134048
-7.43883
-7.30664
-4.01459
0.647327
-4.22069
-5.16499
-3.63371
-9.80222
-10.8576
-13.3411
-9.5968
-4.10524
-3.64205
-11.6251
-23.8017
-12.9929
-4.11842
2.72443
-13.0503
-31.2786
-21.0128
-7.53041
24.812
-10.61
-56.2893
-25.3309
-11.2454
55.7717
-23.4084
-97.5105
-82.5694
-11.6016
98.8614
-85.2528
-162.224
-109.557
-16.1102
112.407
-105.52
-192.974
-111.707
-21.1777
141.867
-108.785
-111.982
-28.6146
118.446
-106.525
-176.307
-133.669
-38.211
96.4343
-68.6124
-136.818
-149.266
-38.9351
60.24
-6.09344
-92.3162
-164.565
-26.5834
34.9362
8.44551
-52.8024
-49.8922
-15.6333
16.1794
0.239487
-21.5327
-21.5058
-8.67469
8.93879
-0.0731712
-11.7365
-11.5622
-4.87079
2.65408
1.34001
-6.02089
-7.40164
-3.92838
-12.4914
-10.7412
-13.7122
-8.32947
-3.86142
-4.56076
-12.8815
-18.058
-13.4388
-4.60892
-0.103414
-11.7432
-37.7142
-19.2479
-5.96983
14.4642
-27.6205
-93.1436
-32.5593
-7.27081
59.8355
-95.5697
-179.242
-82.7499
-12.829
141.267
-90.214
-169.838
-148.08
-14.0025
309.16
435.01
-105.283
-11.9891
380.765
433.614
434.976
410.216
384.12
430.426
434.277
428.901
308.93
371.16
429.777
433.361
421.916
303.64
428.08
-128.572
-32.2733
175.196
-177.559
-52.3517
67.5267
-36.9061
-99.7631
-120.073
-29.0797
25.1688
-3.01396
-45.2352
-48.6529
-14.5797
14.299
5.40306
-19.9628
-24.6839
-7.95851
7.94336
0.289645
-9.66282
-9.64666
-5.29993
1.16843
0.663292
-6.43286
-5.45597
-3.31936
-4.11413
-9.66482
-20.3081
-6.55111
-2.93465
-0.862459
-12.2793
-24.3652
-13.5876
-4.36248
7.4649
-14.1914
-42.552
-25.0142
-8.6762
39.4533
-77.7495
-128.612
-49.8386
-8.16332
131.244
-101.067
-222.244
-107.567
-10.9196
374.022
436.826
437.723
-9.10311
412.339
430.101
433.75
405.966
305.538
413.473
426.584
431.253
437.443
333.72
412.101
425.031
431.35
424.203
285.255
408.241
424.619
429.506
415.574
334.06
389.512
425.027
430.327
398.58
296.216
345.528
430.649
432.266
423.31
-41.8407
170.376
-65.942
-117.277
-139.753
-60.7928
49.7412
-21.3138
-86.207
-90.8017
-20.9326
24.77
4.60161
-30.2042
-28.9865
-9.37233
12.9716
3.37074
-17.3589
-13.4782
-4.68896
7.29576
1.69427
-13.5473
-4.0654
-2.97903
-3.1941
-8.36197
-17.1118
-9.32641
-4.23112
4.42625
-3.42829
-26.2814
-11.8108
-6.00579
25.5664
-30.6467
-11.151
82.986
-79.0522
-164.861
-65.6295
-13.6726
303.833
-194.245
-93.0429
-8.04346
413.488
431.073
435.927
391.742
276.504
416.768
427.479
434.978
379.004
261.419
414.759
423.729
433.7
431.481
336.173
412.858
420.916
429.53
431.286
213.996
412.17
421.904
431.311
454.009
312.643
407.806
422.801
430.665
349.71
298.856
385.565
425.646
427.043
428.411
315.547
301.463
427.493
431.868
-149.338
-46.7559
91.0755
-35.6203
-132.27
-153.259
-22.5664
37.3799
71.8768
-104.934
-12.6775
16.6349
9.24337
-23.1316
-15.3493
-5.64324
7.39615
1.21143
-10.6669
-7.38737
-4.11162
2.36915
-6.70548
-4.82697
-2.83219
-6.97099
-9.96558
-7.55663
-4.19342
-1.29391
-7.86157
-18.6889
-11.9656
-3.99267
6.02763
-11.0615
-35.2495
-22.2292
-7.38578
28.9813
-28.7892
-63.1515
-40.4202
-10.6827
95.2022
-80.2523
-169.783
-86.4274
-25.6979
379.974
436.713
437.824
438.538
-17.4042
416.86
430.006
434.866
388.154
263.284
416.727
425.716
433.556
459.209
173.474
414.4
420.876
424.933
299.16
239.514
408.229
416.793
413.112
336.602
256.534
410.105
417.779
419.828
292.955
230.885
410.869
421.348
429.804
439.877
171.249
398.084
422.386
427.398
412.313
257.741
347.123
429.898
432.861
385.738
316.706
128.081
-57.4875
-116.765
-153.178
-51.3236
28.9035
-0.219328
-53.681
-41.3551
-13.6722
15.0656
0.715047
-16.4542
-18.2616
-7.53861
8.12208
2.92785
-8.43399
-10.4054
-4.96029
0.633443
2.22471
-3.8514
-5.32526
-3.47718
-13.6277
-6.78822
-9.71366
-7.55443
-3.86611
-1.05677
-7.82063
-18.2742
-11.9644
-4.05501
6.31536
-11.5017
-35.4485
-22.6805
-7.74478
29.7013
-34.659
-77.0837
-49.805
-11.1869
116.837
-63.5682
-161.63
-103.69
-24.2894
385.549
437.575
437.425
420.491
417.471
430.819
435.856
441.498
341.522
417.537
426.081
441.942
447.646
196.542
412.205
421.105
418.059
333.202
276.602
407.978
416.329
403.852
337.238
264.273
406.367
417.692
411.971
333.505
260.253
412.105
421.81
427.904
454.676
208.43
401.397
423.08
428.414
440.913
260.36
352.952
429.318
431.592
415.335
320.086
138.768
-60.8027
-124.877
-147.851
-42.5619
26.1235
-6.43394
-47.6822
-46.0677
-14.3194
16.0733
1.1792
-18.873
-20.0897
-8.2377
8.42373
3.01629
-8.66074
-11.3612
-5.18577
0.648122
2.18708
-4.06975
-5.7237
-3.79723
-6.68117
-9.54066
-7.02459
-4.12828
-2.88495
-6.69656
-14.4366
-10.413
-3.97017
5.64664
-6.2362
-25.5612
-19.1635
-6.7662
32.42
-13.4107
-54.9308
-43.3188
-11.4135
120.678
-72.6997
-152.866
-125.83
-20.301
374.334
436.82
438.093
413.94
-15.9504
415.495
431.665
435.564
426.997
278.566
418.765
428.406
438.719
440.013
204.012
416.724
423.368
427.709
327.851
234.901
413.585
420.01
417.407
333.94
270.248
414.529
420.827
424.399
331.904
261.403
411.634
424.628
433.063
439.499
143.115
398.154
426.229
429.598
351.816
264.621
337.089
433.291
433.127
422.072
320.144
107.498
-53.2247
-114.481
-163.588
-18.3342
35.7517
2.47538
-54.982
-63.4299
-11.8664
16.0072
4.50882
-18.2656
-20.1717
-5.71132
6.33289
1.49375
-8.90024
-9.41284
-4.91265
-0.17868
1.73288
-4.2714
-5.87801
-3.64697
-1.01503
-6.7841
-16.0641
-7.25268
-3.37899
7.04887
-4.73108
-25.5142
-6.53586
-5.71141
25.4738
-16.2473
-8.59954
73.1591
-48.1587
-146.211
-108.11
-15.2546
286.422
-144.977
-128.313
-15.4667
396.909
433.31
436.355
438.334
293.99
415.69
430.007
435.625
432.7
226.264
417.95
428.506
433.406
447.766
327.797
417.643
431.884
439.252
443.638
227.925
413.875
426.547
433.194
430.119
258.786
407.252
426.546
430.893
373.919
261.118
383.821
430.967
430.468
372.885
299.925
290.525
431.35
433.728
-136.31
-25.3089
63.1308
-49.9061
-175.555
-128.068
-14.1533
24.0918
1.61138
-64.1675
-8.5283
11.0838
11.3069
-26.8008
-19.2469
-5.15022
4.57181
4.39396
-13.1758
-10.2049
-4.07199
0.982732
-7.7158
-6.08155
-3.39355
-4.31891
-8.8717
-18.4372
-7.56537
-3.18353
0.106087
-9.64368
-19.153
-12.9238
-5.27328
7.79539
-11.6331
-35.6737
-26.7484
-7.17742
33.4829
-38.1638
-95.6064
-60.6073
-10.1178
125.285
-71.4789
-143.194
-130.373
-22.0395
332.017
438.883
439.433
-21.5951
393.136
433.838
435.701
429.858
265.866
405.292
429.871
434.146
447.16
253.695
407.154
429.354
438.265
358.679
171.201
401.876
428.889
432.572
441.424
263.524
383.676
432.323
431.335
403.137
290.974
335.827
434.193
434.465
340.94
-21.8906
90.7509
-101.733
-189.271
-135.844
-13.6928
8.45587
-14.9544
-51.3657
-33.8439
-10.5592
2.80609
-8.76706
-35.8027
-26.6516
-7.20389
1.27161
-10.4713
-20.4507
-12.764
-5.35074
-0.875568
-7.29274
-19.2097
-7.40649
-3.4565
-12.3493
-8.22261
-11.5008
-7.66025
-3.97495
-4.49726
-8.65162
-13.2275
-10.2298
-4.52284
1.44611
-8.20917
-22.6348
-15.2636
-4.98435
15.3546
-10.7711
-37.861
-34.3226
-9.15459
50.1662
-39.3297
-116.32
-80.8785
-13.0149
122.202
-66.0296
-145.852
-134.337
-29.3633
282.992
435.562
-131.017
-110.644
-26.8247
353.534
435.218
437.582
393.897
361.097
435.607
438.106
402.766
320.642
350.476
435.025
436.243
422.639
281.628
434.259
-120.402
-23.1316
93.53
-153.103
-14.0926
31.9081
-37.3345
-91.8576
-59.7808
-10.1728
2.49899
-10.2526
-29.4251
-18.7761
-5.96811
-2.76982
-10.4621
-18.3315
-12.3931
-4.72239
-4.5231
-8.83752
-14.3603
-10.6438
-4.70993
-7.96975
-8.0193
-12.2076
-8.37849
-4.04196
-8.44881
-7.79299
-10.6243
-8.13069
-3.58084
-3.04206
-7.50226
-15.1654
-10.1562
-3.95571
4.39154
-7.88602
-23.7178
-17.7834
-5.81022
21.3601
-2.04998
-46.7544
-26.1073
-8.49757
36.7192
-26.9399
-85.4475
-52.2856
-11.3111
52.5648
-73.0477
-146.915
-81
-13.3661
74.3018
-127.29
-156.591
-83.0217
-21.5262
81.5964
-127.051
-108.519
-16.5116
74.7573
-108.316
-176.154
-95.6339
-9.0466
47.7817
-69.1125
-145.114
-82.6793
-11.6854
28.2465
-18.8863
-88.1221
-62.4328
-9.45083
12.2076
-10.0373
-54.5718
-26.2545
-6.30301
0.570349
-9.2525
-24.0763
-17.4018
-4.84024
-4.51417
-9.34345
-15.7192
-11.7909
-5.11371
-7.83746
-8.53968
-12.2483
-9.93638
-4.82854
-5.93836
-8.09736
-12.9688
-8.26171
-3.61676
0.480026
-6.36213
-19.9889
-10.6952
-4.18974
4.27761
-6.44519
-26.9802
-10.3986
-5.17805
4.25614
-8.72095
-26.4448
-18.5578
-6.4473
5.67818
-12.6537
-36.3524
-23.2037
-7.5218
19.9372
-17.6887
-48.9745
-35.9245
-8.26114
26.2688
-26.2355
-43.1332
-8.18966
7.14276
-21.0677
-53.2641
-24.3969
-7.41222
2.96213
-10.532
-30.2874
-20.8482
-7.17787
4.66918
-9.72541
-28.4643
-22.6913
-5.78067
1.52725
-5.14117
-29.2396
-15.7788
-4.12363
-2.88459
-7.55022
-21.5434
-10.6774
-3.87492
-7.5401
-8.87127
-13.6548
-9.47378
-4.55218
-8.43149
-10.9336
-8.27352
-4.73107
-3.73175
-1.57185
-2.73669
-3.81434
-7.9189
-14.2455
-9.02095
-4.2321
-1.09624
-7.08283
-16.0959
-12.1421
-5.2673
-1.30784
-8.30143
-19.5604
-12.1307
-3.99306
2.46322
-7.94455
-22.7397
-16.3975
-4.21038
6.22608
-10.193
-18.9593
-4.05216
-1.4035
-12.4925
-24.8148
-11.311
-4.14108
-0.627896
-9.22067
-17.2587
-11.334
-4.19453
-4.15497
-9.61548
-16.7901
-12.1434
-5.11027
-5.85964
-9.59158
-15.8086
-9.84453
-4.21193
-4.99817
-1.89103
-22.8457
-12.0676
-3.19012
-14.9195
-6.71814
-3.65587
-11.2527
-7.35679
-10.7036
-6.97791
-3.61071
-7.55
-7.39843
-10.386
-8.56759
-4.29779
-5.68762
-7.266
-12.8796
-9.61247
-4.23429
-3.96601
-7.93456
-15.0449
-9.5557
-4.1046
-0.775027
-9.73894
-11.0095
-4.24939
-4.82616
-10.9398
-15.8973
-9.78484
-4.25545
-7.80597
-9.98339
-13.0018
-9.97891
-4.34252
-9.2541
-9.34953
-12.4056
-9.79879
-4.80216
-11.4659
-9.01219
-12.1488
-8.33348
-4.16206
-12.5449
-7.11185
-11.8364
-8.00844
-3.7621
-9.85399
-9.79783
-5.34656
-2.97315
-13.0473
-9.26665
-14.3042
-8.46438
-3.9653
-8.23617
-4.43075
-11.3938
-11.9315
-9.21407
-8.13256
-4.71666
-3.91832
-0.233043
-9.00434
-1.0362
-12.036
-12.0175
-19.9016
-12.4288
-9.33939
-20.3326
-10.0806
-8.00706
-4.68392
-10.1908
-3.06925
-3.96764
-0.283144
-2.69027
-0.346042
-8.57767
9.26086
-3.28156
-7.1099
-4.44065
-11.417
-11.8022
-8.05617
-21.7068
-2.7936
-6.42899
-3.83825
-2.47628
-0.291991
-3.3076
-0.274691
-4.02845
-4.88842
-10.6963
-11.1694
-8.00924
-6.49315
-3.99883
-3.40225
-0.330475
-8.1613
-8.40792
-11.2514
-11.5506
-8.98197
-7.81811
-4.63598
-3.86192
-0.167658
-14.4275
-8.25721
-9.86835
-8.07131
-8.43938
-11.0565
-8.38459
-10.0803
-11.3256
-8.96119
-10.9508
-9.71396
-7.85166
-4.77833
-8.52982
-5.56574
-4.02869
-0.227405
-4.23296
-0.683786
-9.1132
-7.86754
-7.10383
-7.37757
-8.2065
-10.0744
-8.06009
-10.8621
-10.937
-10.0501
-12.2398
-11.0016
-8.91348
-5.95881
-9.92806
-6.46678
-4.47963
-0.709524
-4.7839
-0.848537
-12.2355
-7.26754
-6.79872
-6.95223
-5.60879
-6.13072
-7.58896
-11.2156
-7.96962
-10.2764
-7.91973
-11.5134
-9.75203
-12.0427
-9.98276
-12.9793
-11.912
-14.5636
-13.3223
-5.54745
-7.88989
-5.02312
-9.67352
-7.12039
-10.4001
-7.40437
-3.73051
-0.536312
-4.15438
-1.59228
-4.24471
-1.66265
-6.96567
-4.89507
-0.808754
-4.24996
-4.91621
-1.36152
-0.146925
-12.3475
-8.85241
-20.2542
-8.25832
-12.5161
-13.6063
-23.5359
-10.2677
-20.5877
-11.3565
-14.366
-12.3853
-24.4345
-14.0726
-5.18132
-5.7485
-3.84102
-8.75703
-6.87655
-6.23136
-4.04725
-0.652571
-2.93305
-0.595114
-4.36194
-1.85103
-3.23746
-1.44181
4.36785
-7.98978
-3.1768
0.916192
9.69583
-0.699087
-1.43012
-4.69753
-11.1412
-2.75382
-4.43347
-12.5164
-11.781
-8.74347
-16.209
-13.4151
-11.7736
-2.98145
-6.29535
-4.23433
-20.0027
-5.06286
-9.01655
-5.76876
-0.494022
-3.30008
-0.591633
-3.81835
-1.49839
-4.19135
-1.85031
-4.11901
-4.25739
-1.43698
-2.69686
-2.10032
-3.18136
-10.6736
-4.46828
-7.94912
-5.90476
-10.581
-5.77284
-8.60176
-9.08624
-8.50037
-7.59671
-13.3606
-12.1766
-10.7401
-9.9276
-4.386
-6.73939
-4.46105
-8.29843
-5.88344
-8.55818
-6.48714
-0.619806
-3.87557
-0.331033
-4.05356
-1.7354
-4.22699
-1.79302
-1.9972
-3.0674
-3.10682
-3.1385
-7.55091
-4.81709
-7.00558
-4.00391
-7.23086
-7.38277
-9.46055
-9.62024
-8.58436
-8.89309
-4.56083
-8.1485
-6.25551
-8.21328
-5.81455
-0.320739
-3.87674
-1.58318
-4.47817
-0.802532
-3.49248
-3.15292
-5.24953
-2.98833
-3.91209
-6.9896
-3.33788
-6.70989
-8.29894
-8.45015
-8.04899
-7.68168
-7.83878
-5.4751
-6.65608
-4.79111
-4.2884
-0.754258
-3.84399
-0.628323
-5.89253
-2.91039
-3.25427
-7.54024
-8.20338
-7.53726
-6.83006
-4.44917
-3.86973
-0.357816
-7.98177
12.3869
-4.7571
-3.3082
-2.77046
-0.524966
-12.6989
-8.07999
-6.37188
-2.38985
-6.35038
-6.21575
-8.35098
-11.7592
-11.5955
-9.35631
-14.138
-12.1439
-9.8029
-13.248
-15.4127
-13.0443
-7.67991
-4.837
-2.10902
-4.15816
-8.02286
-5.27945
-3.70498
-0.494444
-3.14793
-0.585587
-3.44143
-1.37412
-7.99328
-7.72358
-7.4011
-6.04606
-6.09755
-4.98613
-6.00717
-11.0944
-8.63296
-10.4265
-9.0146
-12.9001
-8.79737
-12.3903
-9.98094
-11.9622
-11.5468
-14.6015
-13.3645
-14.6972
-13.7203
-5.34943
-8.89324
-6.89095
-9.52636
-6.78601
-10.7678
-7.73804
-0.677346
-3.88535
-1.55284
-4.33731
-1.85142
-4.54349
-1.82409
-13.8677
-13.4689
-24.3123
-8.31544
-16.9788
-6.50345
-33.4478
-14.8593
-25.5106
-15.1012
-20.8732
-18.8891
-34.1711
-22.3523
-4.35165
-13.8128
-7.64496
-3.31349
-18.8083
-17.4601
-14.8308
-13.4031
-25.1696
-21.22
-19.7788
-1.66802
-2.95114
-2.48299
2.7558
0.379832
1.61132
0.446392
-2.34161
1.27871
0.473156
2.63751
3.43372
-7.57845
-4.28504
-9.84456
-1.42497
-16.3238
-8.26418
-12.3704
-11.2709
-16.439
-9.79637
-4.75533
-8.15106
-5.64071
-5.15847
-4.92105
-0.722519
-3.82592
-1.69067
-3.37649
-0.685401
2.64775
6.41583
0.816354
-18.1539
0.836458
-10.0323
-18.4639
-10.1803
-11.0427
-7.12118
-8.03301
-2.56737
-5.19037
-2.58169
-2.27066
-0.567167
-2.26565
-0.358802
-11.478
-9.80419
-10.4156
-12.5693
-13.1659
-10.3645
-8.58264
-5.07586
-3.84991
-0.631367
-6.31876
-1.35726
-9.84137
-9.18071
-5.89746
-6.55184
20.1906
-10.6857
-13.2917
-10.1722
-18.5717
-36.8208
-14.2067
-12.1458
-18.9637
-12.9676
-0.583216
-3.91572
-7.93707
-5.50796
-7.70088
-5.53794
-2.9722
-0.573219
-3.34291
-1.32918
-3.5452
-1.4922
-8.16918
-17.4308
-9.32039
-21.7337
-4.67347
-29.6636
-18.0535
-13.943
-21.8199
-12.9814
-28.1824
-19.4365
-22.2372
-6.72948
-35.9707
-13.9578
-34.0187
-9.98875
-66.2814
-25.7822
-36.5237
-25.0157
-41.3032
-38.8495
-61.1794
-48.3666
-3.59476
-22.1494
-2.39143
-3.60018
-40.1343
-28.0277
-25.0019
-24.5122
-53.196
-45.5824
-42.8896
-13.2202
-0.415489
-17.4618
1.91238
-21.6751
5.81987
-17.7434
-13.6012
-17.6626
-10.1163
-24.6395
-21.9626
-19.069
-15.2802
8.53257
-2.80849
2.13149
6.58731
7.15622
3.71074
3.35843
0.692994
-8.88992
3.1069
-12.9411
-0.269676
-6.28174
-10.7591
-10.7282
-7.92458
-16.2905
-13.958
-10.2071
-9.88906
-3.4504
-4.93437
-3.20388
-9.67629
-5.62138
-7.04573
-5.3368
-1.14099
-2.48586
-0.630647
-3.92643
-1.68524
-3.81705
-1.79556
1.82381
2.10543
1.71268
0.867031
-8.07819
0.304891
-5.5886
0.483004
-3.58779
-6.89129
-7.55573
-7.8549
-4.50413
-5.8327
-3.19623
-7.01764
-4.636
-5.20919
-4.29491
-0.408252
-3.8156
-0.786804
-3.60563
-0.40801
-13.7976
-10.6514
-10.4802
-11.5795
-11.9649
-10.0059
-8.6159
-5.49817
-4.14983
-0.587874
-10.5079
-9.77363
-11.9939
-10.4509
-8.96699
-9.37938
-10.6973
-11.934
-10.6408
-11.9452
-10.9456
-13.0089
-12.9812
-11.6254
-12.251
-10.5196
-14.1413
-12.7949
-8.74647
-6.45961
-9.0232
-5.77874
-9.70262
-7.00444
-3.77495
-1.48131
-4.24058
-0.651948
-3.9473
-1.51368
-22.2475
-7.41037
-33.9653
-11.7056
-22.0642
-8.38584
-37.8041
-16.4083
-30.2348
-25.4367
-25.9691
-23.1029
-40.0341
-30.7749
-30.6734
-11.5591
-28.0688
-4.81917
-47.4107
-9.03137
-54.1148
-20.433
-30.3967
-30.2677
-47.6195
-32.9573
-63.6767
-55.0373
-57.7534
-8.34405
-77.7256
-109.084
-158.192
-89.2164
-178.865
-62.0883
-71.4524
-61.0661
-150.425
-114.156
-179.759
-116.387
-9.69457
-53.4348
-61.6988
-83.8235
-160.851
-66.9066
-60.7857
-58.7039
-116.63
-174.066
-130.123
-21.9776
2.09669
-24.5648
0.197497
-64.3985
45.9306
-40.2987
-29.0374
-30.4403
-80.747
-126.766
-74.9311
-26.116
4.52448
-16.8874
16.9674
-51.196
4.87573
-16.6278
-23.8329
-20.2498
-18.0512
-48.9653
-56.7582
-21.1688
-26.0226
2.89264
-4.17569
1.23896
5.55683
3.84873
2.83505
2.52269
-3.76976
0.413705
-2.97944
0.823904
-4.22171
0.977443
-2.16049
-8.52372
-4.84087
-6.17333
-9.00188
-10.3609
-6.48639
-7.81864
-5.82947
-5.41559
-4.57903
-10.0149
-7.41976
-7.96836
-6.62537
-1.83498
-3.5543
-0.677073
-5.03032
-2.23684
-4.2214
-1.86075
0.913728
1.37314
1.64607
-3.2831
1.0077
-3.06317
-5.70389
-5.35707
-6.75107
-4.33816
-6.8953
-4.92845
-0.434725
-3.96304
-0.811614
-10.9712
-13.0797
-13.1671
-9.27011
-8.79775
-4.73143
-4.36228
-0.0377908
-12.4528
-10.5466
-16.0611
-10.5107
-9.12577
-9.99939
-10.6644
-11.8931
-10.696
-12.9218
-11.149
-12.6929
-12.2824
-10.5446
-13.0084
-9.37906
-13.5601
-12.1821
-9.05213
-5.82391
-8.57463
-4.77361
-9.11118
-6.43775
-4.35201
-0.671098
-4.19262
-0.151104
-3.66994
-1.35426
-53.6124
-11.9013
-72.3562
-42.4197
-98.6907
-76.5216
-152.914
-42.019
-77.8701
-88.4324
-111.86
-90.5236
-162.842
-168.382
-84.4358
-85.9431
-106.473
0.886744
-109.404
-121.957
-115.452
-145.073
-166.075
-163.019
-130.544
-132.431
-120.296
-89.8178
-170.998
-126.958
433.557
435.971
-172.93
-190.932
-146.988
-132.952
-132.609
435.305
-45.8277
-106.544
-46.6681
-103.322
-32.4721
-26.9713
-3.67633
-18.3936
-5.34701
-16.4076
-2.62885
-15.4932
-1.2915
-103.009
140.079
-171.567
333.787
429.301
345.333
424.915
-180.439
-145.872
-183.832
434.975
436.011
432.353
435.032
-135.928
-185.385
-114.745
435.3
387.578
434.688
364.367
-49.449
-103.639
-47.2684
417.757
-24.8814
441.602
-6.22859
-24.7193
-4.95313
-18.0855
-1.52544
-0.303255
-123.005
124.428
-126.158
345.505
425.076
338.564
423.577
-119.973
-164.625
432.062
434.382
431.55
434.258
-114.268
-180.575
-146.566
434.131
400.725
433.676
359.413
-50.8237
-120.182
-68.5341
427.346
405.092
-46.3482
-6.37089
-32.167
-7.40929
0.754226
-32.6558
-1.0609
-161.051
-61.5128
-122.109
431.403
434.377
429.845
-159.953
-146.678
-168.597
433.822
385.116
-142.364
-74.6193
-139.732
-85.7268
416.122
-48.4102
-133.9
-66.1888
-8.02842
-42.5251
-8.08819
-36.0062
-1.74196
-34.8333
-1.18132
-83.797
-56.8349
-85.8999
-113.13
-87.7604
-95.2179
-166.524
-117.728
-161.279
-120.296
-143.359
-94.755
-128.524
36.2191
49.2887
37.7062
104.044
21.518
71.7672
27.8219
-70.1128
20.7795
-66.8479
-15.6575
-75.6282
-158.33
-61.739
-85.5779
-94.2834
-170.751
-92.8306
-81.7432
-61.6747
-116.887
-116.483
-183.611
-94.3698
-39.1085
2.44761
-17.5345
-14.4225
-50.9535
-3.75068
-31.8786
-66.9359
-29.5538
-39.0355
-87.6724
-125.03
-49.7999
-64.4899
2.01902
4.95531
3.38975
1.70924
2.0128
-1.80087
1.07702
-3.08085
0.895408
-3.78565
-7.2237
-7.50343
-8.53416
-5.56828
-6.494
-5.85527
-8.22465
-6.45569
-5.80011
-4.35223
-1.73186
-4.22204
-1.83337
-3.4489
-0.685846
0.481346
1.63483
1.04147
-4.3429
-5.32873
-5.99841
-5.03417
-3.94251
-3.41996
-0.33496
-16.6555
-11.0842
-8.69179
-6.81733
-11.2512
-13.5038
-11.6712
-18.4348
-13.533
-9.12136
-18.1727
-10.4833
-8.30632
-4.40956
-6.27948
-4.1059
-4.92847
-0.0939339
-3.18776
-0.535913
-10.1423
-8.05619
-9.04743
-7.38824
-8.11292
-5.67267
-7.80023
-13.6747
-11.765
-14.389
-12.4496
-17.2199
-12.601
-16.9982
-10.584
-15.5875
-13.8425
-16.8697
-13.2576
-18.0169
-15.4251
-5.14046
-10.0373
-7.09107
-7.06459
-5.34449
-9.51493
-6.5977
-0.524812
-4.04689
-1.56316
-3.31026
-1.32163
-4.0503
-1.64143
-158.762
-103.039
-148.541
-87.488
-208.585
438.313
-143.38
-176.228
-172.903
-219.497
-157.744
-133.814
-149.824
-126.986
437.925
438.411
431.763
435.975
-168.56
-133.046
-124.457
438.228
-127.456
434.249
375.245
-39.0731
-110.037
-35.6701
-101.607
-21.6752
423.692
319.547
-2.82474
-17.0429
0.00071559
-9.62369
-0.489919
316.981
433.09
436.307
432.338
434.873
429.624
433.024
-123.319
435.4
460.025
432.997
405.444
432.229
415.125
-28.6394
424.665
406.783
316.951
418.848
348.257
0.611162
-13.1846
0.329948
318.766
19.2387
277.657
8.15799
435.483
431.251
433.154
426.892
431.734
425.994
430.36
402.016
434.665
342.679
431.896
412.543
431.049
441.368
450.116
352.213
438.905
313.701
443.545
249.172
0.247232
330.129
1.2545
246.445
2.27299
306.108
0.741792
432.389
430.679
434.034
425.179
429.694
424.688
429.396
403.043
433.155
391.227
431.034
433.575
429.121
474.042
323.766
411.197
325.64
424.55
300.332
371.151
294.018
1.51307
1.36442
299.677
296.205
6.66779
433.948
429.785
433.773
425.595
430.05
427.767
431.221
373.343
433.165
-140.682
429.6
414.728
429.05
376.558
-129.513
-53.2337
352.468
226.292
410.706
278.771
0.815772
-36.6382
0.516497
239.436
5.68238
314.818
-8.81838
433.565
-92.3947
425.535
431.624
431.013
432.749
-140.33
-111.421
431.098
548.984
431.967
410.298
-56.093
-95.4897
-83.9367
403.419
323.014
395.436
-60.7338
0.0599681
-57.0932
-4.00831
304.557
-14.8147
-41.4144
2.10074
-80.2433
-81.4143
428.519
433.023
-70.3004
-99.0784
-109.727
-157.481
432.561
409.835
-109.601
-152.056
-107.812
-168.99
-117.262
-67.9859
-148.106
-113.546
2.12026
5.68619
4.69182
-4.71032
0.924429
-10.3635
-6.46501
-11.5547
-7.98689
-3.9332
-4.92065
-3.26347
-0.660238
-3.01355
-0.681755
-6.73982
-5.82753
-4.86138
-3.32193
-10.9996
-20.785
-5.57246
-16.7623
-19.9436
-8.24019
-17.3438
-12.9246
-3.16825
-3.87079
-8.70984
-4.61953
-2.91286
-0.590218
-3.61743
-0.684212
-4.8183
-2.76681
-6.20795
-2.27353
-2.21195
0.383418
0.67505
-20.8078
-11.282
-22.7091
-5.28187
-17.2814
-5.79507
-25.6395
-10.3109
-22.531
-16.3431
-18.0533
-14.3603
-27.0505
-11.9354
-4.84769
-12.1972
-5.68562
-11.0181
-5.23884
-5.52072
-7.42911
-23.7985
-14.6473
-31.1246
-7.25896
-27.8626
-17.0503
-18.9439
-34.2302
-28.7799
-28.919
-12.9799
-38.538
-35.3465
-29.5222
-54.3278
-17.4602
-61.2096
-39.6049
-120.483
-39.4953
-64.5776
-56.0483
-56.9101
-45.7564
-128.244
-78.4975
-129.804
-125.708
-186.699
-70.6447
-158.168
-136.602
-190.936
-94.4749
-211.865
-151.399
-169.831
-136.01
-203.917
-134.529
-205.411
438.015
438.729
-195.553
433.309
437.528
-139.674
438.396
-124.292
-199.29
-117.638
436.914
458.754
-28.5173
-98.4401
-21.1192
-81.5522
-19.9727
406.236
295.788
-3.68081
-9.33679
-0.580097
-12.2075
-0.000618672
308.075
-2.74841
435.38
417.196
436.249
371.038
435.872
386.129
-18.4215
433.257
316.922
352.866
275.384
380.474
154.853
0.0373929
306.685
305.292
-8.33512
285.497
-0.0553674
422.403
432.476
361.201
435.887
411.266
433.207
452.491
311.792
417.419
301.933
419.871
272.363
439.431
256.215
2.03263
336.396
7.46807
290.742
-1.39655
241.914
-90.0352
413.903
431.11
439.411
431.841
557.516
430.645
620.517
321.058
442.428
224.24
423.482
258.125
432.341
278.316
-0.630328
306.043
4.35438
148.626
272.474
-31.1494
429.604
429.197
416.096
431.648
466.696
431.111
426.94
275.84
365.102
307.022
427.737
3.29989
436.546
197.774
269.299
1.7087
196.291
-71.2428
376.123
429.888
441.266
430.724
443.344
430.578
423.56
276.33
423.3
299.505
450.641
231.375
385.316
230.01
5.57564
337.154
-3.44487
164.82
266.714
-1.17984
410.901
431.883
408.025
430.131
209.542
428.335
408.531
293.048
417.043
399.697
145.905
429.717
287.22
-27.7166
2.34798
274.478
0.356489
258.031
-3.24698
432.981
-63.9324
-101.846
429.37
429.02
428.264
432.555
419.435
-113.965
-145.957
428.773
409.043
431.622
-62.7873
-140.094
-94.2731
430.227
286.953
-143.167
-71.8877
2.09526
-64.3447
-4.37388
317.242
-5.13894
-51.5097
-1.8351
-104.006
-66.4352
-112.668
427.242
-55.2727
-123.834
-153.424
-135.688
-156.043
-151.163
-137.582
-162.102
-108.511
-146.324
-104.282
-146.92
-87.9934
-168.049
-116.382
-56.6184
-3.69287
-28.9493
-39.5831
-119.503
11.2299
-58.355
-105.619
-44.0988
-55.3256
-126.295
-158.689
-58.2287
-69.489
-17.8653
2.28181
-15.4671
18.4457
-50.2805
13.1804
-32.9814
-18.7338
-19.4363
-51.146
-51.2458
-29.6733
-14.5464
4.29893
-12.2014
7.26081
-28.8817
7.25034
-13.6829
-16.7367
-13.068
-9.89687
-26.7011
-24.5006
-16.5731
-13.0905
7.16143
8.21531
8.53049
0.551672
4.49515
-13.4486
5.55957
-10.3779
3.03906
-6.89358
-8.89928
-12.9084
-11.6099
-8.80737
-7.26613
-2.73922
-8.62018
-3.15408
-4.56861
-2.80275
-1.39357
-2.91304
-1.36769
-2.36794
-0.541323
4.21221
2.87266
-6.3896
-7.51671
-6.3572
-4.77983
-2.8394
-2.46794
-0.210716
-5.20791
-5.18057
-6.95017
-6.13941
-6.09305
-8.40399
-12.2061
-6.94534
-9.68456
-7.6955
-10.574
-13.8892
-12.0423
-10.1829
-8.33747
-12.8577
-11.7489
-7.62813
-5.25396
-7.49634
-4.75015
-8.62873
-6.22721
-3.45996
-1.50003
-4.16751
-0.0684772
-3.94342
-1.6476
-16.4612
-5.52956
-20.9933
-6.97475
-11.7153
-7.41516
-14.3638
-14.9919
-22.0327
-15.9242
-15.102
-14.4838
-19.1459
-17.4115
-24.5222
-6.23502
-18.8609
-10.4361
-28.0749
-16.9998
-25.2797
-24.1114
-35.1816
-31.3683
-39.4238
-140.56
-13.7591
-49.1836
-57.5531
-144.357
-142.239
-74.8152
-53.1395
-48.5909
-149.914
-114.856
-33.2844
232.107
-136.76
109.929
-61.749
310.731
432.408
-162.563
-138.43
-191.626
-89.9018
-164.606
436.345
439.072
-105.857
-194.451
-129.5
-164.537
-126.936
438.671
-35.8158
-90.3133
-24.1706
-100.892
-49.1062
-33.8086
-4.46494
-14.4355
-3.37064
-17.3078
-4.56975
-17.8336
-1.69237
-192.872
434.984
436.627
436.472
438.629
433.16
435.889
-116.527
436.397
402.534
437.907
421.207
435.125
420.728
-17.5531
405.683
292.969
430.367
-23.5014
427.149
218.985
-1.09209
296.104
5.7
-15.9453
-1.19059
273.987
1.79823
557.498
434.541
426.563
435.103
357.846
434.522
361.315
269.774
414.311
251.859
416.057
280.396
443.8
44.3319
4.6582
316.775
312.028
4.87787
228.897
-110.532
384.167
436.246
417.004
434.702
438.471
428.923
491.076
200.219
439.505
260.846
437.24
143.789
406.994
166.121
0.410296
361.266
-44.2584
209.314
330.562
582.108
429.721
593.931
426.255
439.053
419.959
372.986
220.472
431.637
211.746
349.296
162.336
330.857
271.888
-45.8163
236.476
-26.9585
229.855
272.734
507.938
415.943
412.026
415.516
410.052
414.468
411.13
413.438
427.931
420.934
428.353
417.848
420.151
418.284
421.052
471.7
430.211
490.502
419.212
373.425
420.339
352.794
175.192
452.434
72.7523
333.751
269.724
278.283
249.666
170.218
267.989
466.822
243.931
727.173
453.654
432.066
209.224
423.867
393.754
428.059
426.125
209.053
394.66
195.03
269.558
183.999
439.81
232.948
379.067
-2.33705
215.633
688.199
256.49
388.558
427.556
409.465
429.279
546.054
427.925
401.833
181.581
426.853
327.717
438.305
228.099
425.874
208.533
-28.2037
286.11
-0.359596
309.577
235.465
-2.74723
428.975
430.733
432.477
424.125
427.887
429.904
431.341
438.69
431.571
427.499
443.482
430.582
358.011
304.623
-69.5334
423.839
235.041
343.417
299.534
-8.35533
-49.8536
0.235547
261.748
-26.4152
301.343
1.38924
417.61
173.298
0.851337
331.196
418.541
188.616
-69.9041
432.716
-76.5967
-128.487
431.767
433.143
-77.6375
-98.8275
-154.018
-132.722
-167.367
431.931
325.168
-102.035
-145.372
-81.7343
-174.589
-108.252
388.823
303.983
-160.147
-86.1103
-2.11555
-51.0043
-12.1592
0.593496
-46.4229
-9.80123
-129.244
30.4389
-52.6168
-93.2637
8.1216
-67.6723
-170.212
-82.4487
-108.937
-155.231
-85.9839
-118.641
11.3579
-27.3324
11.3296
-42.556
4.481
-14.9987
-27.4971
-27.2559
-55.6903
-72.8904
-26.8152
-32.1553
-18.0905
4.07704
-11.2724
4.38344
-8.13039
3.21834
-5.7202
-21.425
-13.7538
-13.3142
-17.4035
-20.0859
-12.4067
-14.64
6.37219
0.6609
4.1103
7.36645
5.82841
2.73706
3.15384
-6.16076
2.00998
-5.78682
2.06719
-3.9709
1.95372
-2.83978
-10.4391
-7.60543
-7.06615
-8.62026
-9.76775
-4.80537
-6.38823
-5.37922
-5.30271
-3.62011
-8.70052
-6.39297
-5.82141
-4.28299
-1.94046
-2.88491
-0.612241
-4.52065
-1.98211
-3.32921
-0.743787
3.58175
-0.125803
2.77772
-5.60948
2.19627
-3.03379
-6.00277
-4.08164
-5.63829
-3.24545
-5.33233
-4.06408
-0.420009
-3.47321
-0.491893
-8.79819
-9.57061
-8.05344
-7.36547
-4.83748
-3.94222
-0.129175
-6.95774
-5.52584
-5.90297
-13.6155
-6.873
-5.20772
-5.72499
-9.41848
-6.97551
-9.7387
-6.80751
-8.88593
-6.7361
-9.36523
-8.39741
-12.7162
-11.7064
-9.83413
-8.86208
-12.5399
-11.6808
-4.85838
-9.40266
-6.96912
-7.6053
-5.25118
-9.61149
-7.20638
-0.144071
-4.1895
-1.67768
-3.87216
-0.586731
-4.26659
-1.7135
-165.535
437.086
438.928
-63.4522
-146.915
438.136
438.534
-122.954
438.512
-162.426
-132.188
438.122
430.157
-50.7757
-33.2851
-103.447
-51.1403
435.246