/*--------------------------------*- C++ -*----------------------------------*\
| =========                 |                                                 |
| \\      /  F ield         | OpenFOAM: The Open Source CFD Toolbox           |
|  \\    /   O peration     | Version:  4.0                                   |
|   \\  /    A nd           | Web:      www.OpenFOAM.org                      |
|    \\/     M anipulation  |                                                 |
\*---------------------------------------------------------------------------*/
FoamFile
{
    version     2.0;
    format      ascii;
    class       volScalarField;
    location    "300";
    object      epsilon;
}
// * * * * * * * * * * * * * * * * * * * * * * * * * * * * * * * * * * * * * //

dimensions      [0 2 -3 0 0 0 0];

internalField   nonuniform List<scalar> 
3072
(
4.45426
3.56808
4.35174
4.21583
3.54062
3.60361
5.72192
26.4967
52.1836
64.8466
72.4158
77.6306
10.7986
8.99213
8.29876
7.92118
13.5406
26.9508
30.6898
38.4812
46.1959
48.4752
49.5313
50.1477
14.961
12.9737
18.9035
22.8245
23.3815
26.7192
30.8392
36.1515
38.7724
40.3666
41.4945
42.1264
20.6538
17.1189
20.5532
21.6877
23.1603
26.8138
30.7989
34.0128
35.7274
37.097
38.1502
38.7496
22.7967
18.8993
20.8882
21.6828
23.6862
27.2456
30.5677
32.9589
34.4734
35.6518
36.5854
37.1604
23.3518
18.5546
20.2405
21.5545
24.0984
27.448
30.4109
32.4327
33.7902
34.8298
35.6525
36.2421
21.6228
16.8938
18.6586
21.2813
24.5488
27.9158
30.6705
32.5951
33.8975
34.8637
35.6095
36.1707
20.1655
15.0426
17.9077
21.9273
26.0962
29.668
32.3125
34.0982
35.2683
36.0839
36.6945
37.1616
19.5813
15.0113
19.8592
25.9939
31.5266
35.4368
37.8439
39.1634
39.8017
40.0764
40.1707
40.1948
20.4327
18.1392
29.8441
40.1167
46.9055
50.3748
51.4639
51.1281
50.0849
48.7836
47.4756
46.2775
24.4452
35.3035
60.3559
75.2064
80.1724
79.7387
76.3142
71.7975
67.1151
62.7098
58.805
55.4463
115.932
112.767
124.579
126.956
122.806
113.8
104.027
94.5619
85.8674
78.0896
71.3407
65.5672
80.228
81.0247
80.3015
78.5426
75.5193
70.5632
63.9635
55.5267
45.2894
34.1377
22.7164
30.0077
50.3549
50.187
49.6822
49.1914
49.1051
49.8902
52.226
56.5653
62.2431
68.2651
73.6028
92.081
42.4146
42.3044
41.8858
41.5952
41.7562
43.012
45.8804
51.0762
59.7091
73.2007
94.6195
140.852
39.0269
39.0558
38.9056
38.8299
39.133
40.3926
43.2375
48.6114
58.0097
74.4791
105.941
177.228
37.432
37.4947
37.4205
37.3936
37.7216
38.887
41.5365
46.7048
56.2054
74.0017
111.774
203.984
36.597
36.7507
36.7852
36.8682
37.2702
38.4156
40.9547
45.9029
55.247
73.4136
115.151
228.431
36.5594
36.7946
36.9371
37.1275
37.5815
38.6725
41.0312
45.7399
54.7564
72.663
116.402
249.354
37.5068
37.7566
37.9609
38.2122
38.6766
39.6788
41.8123
46.1545
54.8046
72.4442
116.755
274.975
40.1824
40.1598
40.1678
40.2739
40.6044
41.4142
43.2388
47.135
55.28
72.5274
117.58
304.346
45.2349
44.3744
43.7145
43.3332
43.3664
43.8727
45.2637
48.5793
56.0607
72.6772
118.298
334.91
52.6366
50.3607
48.5848
47.3194
46.6679
46.8184
47.7173
50.3239
56.7742
72.6156
119.309
372.502
60.7375
56.8345
53.778
51.5346
50.0733
49.6073
50.1233
51.9379
56.9821
71.0958
117.703
433.868
4.43105
3.55047
4.34112
4.20797
3.53658
3.59679
5.69086
26.3401
52.0596
64.745
72.3097
77.5337
10.7942
8.99324
8.29201
7.90736
13.4769
26.8976
30.659
38.3977
46.1345
48.419
49.475
50.0948
14.9354
12.9437
18.8655
22.8076
23.3624
26.6733
30.7879
36.0971
38.7245
40.3158
41.4461
42.0813
20.6256
17.0931
20.531
21.6855
23.1275
26.7685
30.7533
33.9691
35.6848
37.0528
38.1077
38.709
22.7676
18.8768
20.8645
21.6469
23.6521
27.2054
30.5304
32.9218
34.4362
35.6135
36.5469
37.1229
23.328
18.5358
20.2191
21.5266
24.068
27.414
30.3804
32.4018
33.7585
34.7963
35.6179
36.2072
21.6064
16.8794
18.6413
21.2602
24.5234
27.8888
30.6437
32.5678
33.8691
34.8338
35.5791
36.1396
20.1551
15.0326
17.8954
21.9109
26.0784
29.6493
32.2926
34.0771
35.2455
36.0592
36.668
37.1342
19.5763
15.0063
19.8523
25.9871
31.5203
35.4297
37.8347
39.1516
39.7875
40.0587
40.1506
40.1732
20.4312
18.1394
29.8495
40.1266
46.9169
50.3856
51.4709
51.1305
50.0826
48.7764
47.4645
46.2633
24.4473
35.3136
60.3783
75.2361
80.2025
79.7659
76.336
71.813
67.1243
62.7129
58.8028
55.4398
115.957
112.784
124.597
126.976
122.829
113.824
104.048
94.5798
85.8806
78.0977
71.3439
65.5662
80.1366
80.9407
80.2147
78.4746
75.4595
70.5139
63.9238
55.4974
45.2689
34.125
22.7085
29.9944
50.3046
50.1427
49.64
49.1562
49.0726
49.8633
52.201
56.5412
62.2191
68.2419
73.5785
92.0484
42.3718
42.2667
41.8519
41.5657
41.7296
42.9885
45.8591
51.0561
59.689
73.1787
94.5922
140.81
38.9879
39.0196
38.8731
38.8001
39.1068
40.3693
43.2164
48.5918
57.9904
74.458
105.914
177.175
37.3955
37.4601
37.3888
37.3642
37.6953
38.8633
41.5151
46.6851
56.1866
73.9817
111.748
203.928
36.5626
36.7178
36.7544
36.8396
37.244
38.3919
40.9331
45.8832
55.228
73.3944
115.125
228.372
36.5282
36.764
36.908
37.1003
37.5563
38.6493
41.01
45.7202
54.738
72.6438
116.379
249.294
37.479
37.7293
37.9345
38.1872
38.6532
39.6572
41.7923
46.1358
54.7867
72.4263
116.732
274.914
40.1598
40.137
40.1454
40.2524
40.5839
41.395
43.221
47.1183
55.2639
72.5109
117.559
304.289
45.2186
44.357
43.6969
43.3161
43.35
43.8572
45.2491
48.5655
56.0475
72.663
118.28
334.854
52.6271
50.3493
48.5724
47.3069
46.656
46.8073
47.7067
50.3138
56.7643
72.6052
119.293
372.458
60.7332
56.8281
53.7703
51.5266
50.0655
49.6004
50.1169
51.932
56.9763
71.0891
117.694
433.833
4.43067
3.54969
4.3349
4.19964
3.52848
3.59613
5.73649
26.6147
52.2709
64.9159
72.4929
77.7025
10.7983
8.98996
8.29001
7.91046
13.5544
26.9703
30.7027
38.5409
46.2379
48.5151
49.5726
50.1873
14.9612
12.9796
18.912
22.8205
23.3817
26.7466
30.8749
36.1905
38.8071
40.4049
41.5319
42.1618
20.6686
17.1285
20.5587
21.6925
23.1762
26.845
30.8314
34.0445
35.7594
37.1314
38.1843
38.7829
22.8219
18.9108
20.8959
21.693
23.7076
27.2755
30.5945
32.9861
34.5017
35.6823
36.6168
37.1919
23.3763
18.5664
20.2498
21.5689
24.12
27.4737
30.4336
32.4557
33.8148
34.8566
35.681
36.2716
21.6446
16.9054
18.6701
21.2969
24.5685
27.9372
30.6912
32.6161
33.9198
34.8878
35.6347
36.1971
20.1821
15.0527
17.9194
21.9419
26.1126
29.6848
32.3296
34.1157
35.2867
36.1039
36.7162
37.1845
19.5929
15.0189
19.8693
26.0047
31.5371
35.4469
37.8545
39.1745
39.8137
40.0901
40.186
40.2114
20.4411
18.1454
29.8502
40.1198
46.9057
50.3736
51.463
51.1282
50.0862
48.7868
47.4808
46.2848
24.4527
35.3115
60.3586
75.1993
80.1579
79.7228
76.2989
71.7837
67.1032
62.7004
58.7982
55.4423
115.964
112.779
124.578
126.943
122.781
113.774
104.001
94.5378
85.8452
78.0697
71.3237
65.5533
80.3011
81.0899
80.3644
78.5976
75.5682
70.603
63.9987
55.5522
45.3102
34.149
22.7225
30.0144
50.3932
50.2192
49.7121
49.2169
49.1289
49.91
52.2443
56.5839
62.2621
68.2852
73.6209
92.1034
42.4486
42.3346
41.9138
41.6207
41.7802
43.0345
45.9025
51.0985
59.7327
73.2272
94.65
140.893
39.0594
39.0866
38.9342
38.8572
39.1586
40.4173
43.2619
48.6364
58.0361
74.5087
105.98
177.29
37.4633
37.5251
37.4496
37.4217
37.7485
38.9132
41.5625
46.7316
56.2344
74.0352
111.818
204.063
36.6268
36.78
36.8138
36.896
37.2972
38.4421
40.9813
45.9304
55.277
73.4487
115.198
228.525
36.5865
36.822
36.9641
37.1541
37.6075
38.6983
41.0573
45.7673
54.7864
72.699
116.452
249.461
37.5306
37.7807
37.9849
38.2361
38.7004
39.7027
41.8368
46.1807
54.8341
72.4802
116.806
275.096
40.2001
40.1785
40.187
40.2936
40.6243
41.4346
43.2604
47.1588
55.3076
72.5624
117.632
304.484
45.244
44.3852
43.7267
43.3469
43.3812
43.8884
45.281
48.5993
56.0852
72.71
118.35
335.063
52.6353
50.3621
48.5887
47.3256
46.6766
46.8291
47.7295
50.3393
56.7947
72.6446
119.359
372.673
60.727
56.8274
53.7742
51.534
50.0757
49.6131
50.1306
51.9481
56.9976
71.1194
117.747
434.068
4.43179
3.55105
4.34181
4.20868
3.53735
3.59817
5.69669
26.3746
52.0933
64.7756
72.3414
77.5643
10.7965
8.99601
8.29427
7.91082
13.4891
26.9154
30.6741
38.4211
46.1547
48.4377
49.4934
50.1122
14.9387
12.9481
18.8744
22.8212
23.3769
26.6876
30.8028
36.1126
38.7386
40.33
41.4592
42.0933
20.628
17.1
20.5424
21.6979
23.1387
26.7805
30.765
33.9802
35.6954
37.0634
38.1175
38.7182
22.7686
18.8844
20.8752
21.658
23.661
27.214
30.5386
32.9304
34.4444
35.6217
36.5549
37.1303
23.3286
18.5427
20.2289
21.535
24.0752
27.4212
30.387
32.4082
33.7647
34.8025
35.6242
36.2132
21.606
16.8849
18.6491
21.2666
24.5294
27.8944
30.6491
32.5728
33.8738
34.8384
35.5833
36.1437
20.1531
15.0359
17.9002
21.916
26.0825
29.6526
32.2953
34.0793
35.2474
36.0611
36.6701
37.1363
19.5745
15.008
19.8556
25.9901
31.5221
35.4299
37.8336
39.1499
39.7855
40.0571
40.1496
40.1726
20.4306
18.1414
29.8531
40.1294
46.9173
50.3829
51.466
51.1245
50.0766
48.7711
47.4603
46.2602
24.4497
35.3198
60.3869
75.2426
80.2044
79.7645
76.3311
71.8062
67.117
62.7062
58.7972
55.4355
115.985
112.804
124.615
126.99
122.838
113.828
104.048
94.5767
85.876
78.0927
71.3394
65.5626
80.1669
80.9697
80.2435
78.5016
75.4845
70.5367
63.9437
55.5139
45.2807
34.1346
22.7156
30.0065
50.3215
50.1582
49.655
49.1702
49.0862
49.8763
52.2145
56.5552
62.234
68.2567
73.5972
92.0749
42.3833
42.2768
41.8611
41.5739
41.7373
42.9958
45.8662
51.0634
59.6972
73.1888
94.6076
140.837
38.9966
39.0275
38.8801
38.8065
39.1122
40.3742
43.2209
48.5963
57.9956
74.4653
105.925
177.202
37.4025
37.4665
37.3943
37.3691
37.6994
38.8668
41.5181
46.6878
56.1893
73.9853
111.755
203.951
36.5683
36.7229
36.7589
36.8435
37.2474
38.3947
40.9355
45.8851
55.2297
73.3966
115.13
228.391
36.5322
36.7678
36.9114
37.1033
37.5589
38.6515
41.0118
45.7217
54.7391
72.6449
116.382
249.309
37.4813
37.7315
37.9366
38.1891
38.655
39.6587
41.7935
46.1368
54.7874
72.4268
116.733
274.924
40.1597
40.1374
40.146
40.2531
40.5847
41.3957
43.2216
47.1186
55.264
72.5108
117.559
304.293
45.2166
44.3558
43.6963
43.3158
43.3499
43.8571
45.2489
48.565
56.0466
72.6618
118.278
334.848
52.624
50.3472
48.5711
47.306
46.6553
46.8065
47.7057
50.3123
56.7622
72.6024
119.289
372.438
60.7307
56.8264
53.7693
51.5259
50.0649
49.5992
50.1154
51.9298
56.9731
71.0846
117.687
433.793
163.773
157.092
149.359
140.26
131.587
122.357
113.003
103.852
94.9736
86.5325
78.8573
71.9909
99.2785
101.645
103.091
103.072
102.361
100.517
97.8286
94.0631
88.7651
82.73
76.7481
70.8887
68.0878
70.1006
71.8172
73.0574
74.0612
74.4898
74.2248
73.2878
71.6124
69.4775
66.7039
63.1198
52.0122
53.0797
53.9182
54.5068
54.9849
55.3852
55.4419
55.2671
54.7991
54.0397
52.9897
51.7415
66.046
61.1761
57.3161
54.4211
52.4598
51.4129
51.5626
52.6429
55.8751
64.9055
89.4869
177.42
65.5155
61.0462
57.462
54.7551
52.8757
51.6831
51.4359
51.8568
53.4863
57.7939
68.6602
94.305
59.5171
56.5075
54.0375
52.0913
50.5816
49.4051
48.6895
48.5389
49.2399
50.8934
55.7409
64.8332
50.5264
49.2283
47.7696
46.2734
44.8291
43.5395
42.7356
42.4434
43.0634
43.9984
46.5648
50.3084
163.774
157.085
149.352
140.256
131.587
122.362
113.011
103.861
94.9821
86.539
78.8612
71.992
99.2832
101.645
103.087
103.067
102.358
100.516
97.8294
94.0659
88.7702
82.7347
76.7517
70.8907
68.0977
70.1079
71.8226
73.0612
74.0645
74.4932
74.2286
73.292
71.617
69.4824
66.7086
63.1236
52.0228
53.0889
53.926
54.5134
54.9911
55.391
55.4478
55.2732
54.8054
54.046
52.9959
51.7475
66.0446
61.173
57.3122
54.417
52.456
51.4098
51.5598
52.6404
55.8727
64.9033
89.4837
177.415
65.5158
61.0455
57.4609
54.754
52.8748
51.6825
51.4358
51.857
53.4868
57.7945
68.6611
94.3057
59.5199
56.5096
54.0393
52.093
50.5831
49.4066
48.6914
48.5412
49.2428
50.8969
55.7449
64.8379
50.5321
49.2337
47.7744
46.2777
44.8327
43.5435
42.7405
42.4492
43.0702
44.0058
46.5731
50.3169
163.77
157.086
149.351
140.249
131.571
122.338
112.982
103.83
94.9518
86.5114
78.8378
71.9737
99.2843
101.651
103.076
103.086
102.365
100.516
97.8256
94.0567
88.7534
82.7175
76.7354
70.8761
68.1027
70.1149
71.8294
73.0714
74.0751
74.5011
74.2344
73.2955
71.6184
69.4809
66.7044
63.1165
52.0316
53.0985
53.9364
54.5247
55.003
55.4027
55.4575
55.2813
54.8118
54.0504
52.9981
51.7485
66.0316
61.1649
57.3084
54.4168
52.4585
51.415
51.5663
52.6493
55.8853
64.922
89.5155
177.494
65.5042
61.037
57.4552
54.7508
52.8734
51.6828
51.438
51.8602
53.4924
57.8046
68.6789
94.3399
59.5137
56.5045
54.035
52.0894
50.5801
49.4044
48.6905
48.5416
49.2455
50.9024
55.756
64.8563
50.5312
49.2313
47.771
46.2739
44.8292
43.5411
42.7393
42.4497
43.0729
44.0108
46.5816
50.3297
163.832
157.126
149.383
140.283
131.61
122.379
113.022
103.868
94.9853
86.54
78.8612
71.9918
99.3227
101.685
103.104
103.114
102.394
100.546
97.8557
94.0866
88.7825
82.7438
76.7585
70.8956
68.1259
70.139
71.8528
73.0941
74.0976
74.5237
74.2568
73.3174
71.6397
69.5013
66.7236
63.1339
52.0474
53.1157
53.9537
54.5413
55.0194
55.4188
55.4731
55.2966
54.8266
54.0647
53.0118
51.7613
66.0446
61.1733
57.3126
54.4173
52.456
51.4089
51.5582
52.6378
55.8687
64.8972
89.4755
177.403
65.52
61.0492
57.4639
54.7563
52.876
51.6825
51.434
51.8542
53.4822
57.7874
68.6503
94.2902
59.5289
56.5171
54.0451
52.0969
50.5852
49.4068
48.6895
48.5375
49.2362
50.8877
55.7312
64.82
50.5428
49.2414
47.7793
46.28
44.8322
43.5407
42.735
42.441
43.0584
43.9912
46.5545
50.2939
42.6714
42.7979
42.8526
42.8418
42.8449
42.8227
42.6924
42.4898
42.194
41.8215
41.3714
40.8971
35.3137
35.1892
35.0432
34.8915
34.7671
34.6332
34.4789
34.3272
34.162
33.9334
33.5245
32.838
29.6781
29.6078
29.5059
29.3693
29.1944
28.9728
28.7362
28.5287
28.369
28.241
28.065
27.661
25.2758
25.348
25.3663
25.2799
25.0482
24.6889
24.261
23.8447
23.539
23.5424
24.2206
25.8347
40.3482
38.5222
36.6433
35.511
34.8602
34.8705
35.5583
36.7164
38.2622
39.7814
41.5061
42.5667
31.8929
29.0243
27.0669
26.4968
26.7708
27.797
29.394
31.2727
33.0909
34.4668
35.4289
35.7011
27.0745
22.1829
20.2466
20.0594
20.8665
22.3708
24.3133
26.394
28.1109
29.2384
29.8979
29.989
27.3364
17.6025
15.4634
15.4005
16.4345
18.061
20.0142
22.0122
23.5689
24.5718
25.1552
25.3234
42.6792
42.8051
42.8593
42.8482
42.8515
42.8296
42.6997
42.4975
42.2018
41.8294
41.3795
40.9059
35.3193
35.1948
35.049
34.898
34.7742
34.641
34.4874
34.3361
34.1715
33.9434
33.5356
32.8508
29.6824
29.6124
29.5112
29.3755
29.2017
28.9811
28.7455
28.539
28.3817
28.2538
28.0798
27.6789
25.2792
25.3517
25.3707
25.2857
25.0553
24.6974
24.2709
23.8574
23.5609
23.5592
24.2394
25.8596
40.3579
38.5308
36.6514
35.5192
34.8689
34.8798
35.5684
36.7272
38.2734
39.7929
41.5179
42.5786
31.9075
29.0364
27.0784
26.5083
26.7827
27.8095
29.4071
31.2862
33.1048
34.4809
35.4431
35.7152
27.0952
22.1982
20.2605
20.0729
20.8801
22.3848
24.3278
26.409
28.1262
29.2539
29.9132
30.0041
27.3685
17.6207
15.4785
15.4147
16.4486
18.0755
20.0291
22.0276
23.5846
24.5875
25.1707
25.3384
42.6913
42.8175
42.8716
42.8602
42.8628
42.8394
42.7075
42.5034
42.2058
41.8312
41.379
40.9032
35.3333
35.2085
35.0618
34.9092
34.7837
34.6486
34.4928
34.3395
34.1726
33.9421
33.5317
32.8449
29.6969
29.6261
29.5232
29.3853
29.2093
28.9864
28.7485
28.5397
28.3786
28.2496
28.0733
27.6704
25.2932
25.3646
25.382
25.2938
25.061
24.7007
24.2718
23.8545
23.5482
23.5518
24.2313
25.8488
40.3534
38.5268
36.6482
35.5169
34.8679
34.8799
35.57
36.7302
38.2782
39.7997
41.5274
42.5896
31.9005
29.0318
27.0754
26.5066
26.7822
27.81
29.4087
31.2888
33.1088
34.4864
35.4497
35.7225
27.0853
22.1924
20.2567
20.0702
20.8786
22.3842
24.3279
26.4098
28.1279
29.2563
29.9163
30.0075
27.3534
17.6132
15.4734
15.4107
16.4457
18.0732
20.0274
22.0263
23.5837
24.587
25.1706
25.3386
42.7032
42.8293
42.8826
42.8676
42.872
42.8493
42.7169
42.5124
42.2143
41.8391
41.3858
40.9084
35.3405
35.2153
35.0679
34.9146
34.7892
34.6538
34.4975
34.3436
34.176
33.9444
33.5322
32.8428
29.7001
29.629
29.526
29.3877
29.2115
28.9881
28.7496
28.54
28.3779
28.2473
28.0681
27.6615
25.2934
25.3648
25.3822
25.294
25.0609
24.7
24.2703
23.8519
23.544
23.5459
24.2212
25.8326
40.3567
38.5282
36.6466
35.512
34.8593
34.8684
35.5546
36.7111
38.2545
39.7716
41.4934
42.5531
31.8956
29.0255
27.0665
26.4954
26.7684
27.7941
29.3903
31.2679
33.0841
34.4581
35.4187
35.6909
27.0735
22.1815
20.2445
20.0571
20.864
22.3683
24.3105
26.3907
28.1062
29.2326
29.8913
29.983
27.3316
17.5996
15.4608
15.398
16.4322
18.0591
20.0124
22.0102
23.5663
24.5687
25.152
25.321
21.6814
21.9111
22.0413
22.0048
21.6915
21.131
20.3731
19.4829
18.5303
17.5942
17.2061
19.5763
18.6358
18.9917
19.207
19.1996
18.7943
18.0009
16.8298
15.2851
13.2969
10.5993
6.42136
2.87719
15.9946
16.4267
16.6972
16.7025
16.2255
15.2394
13.7242
11.6699
9.04238
5.8364
2.7307
1.82385
13.661
14.1404
14.4439
14.4578
13.9527
12.8719
11.193
8.96019
6.30989
3.62774
1.84274
1.7272
11.5982
12.1043
12.4259
12.454
11.971
10.9061
9.2519
7.125
4.80052
2.78399
1.6122
1.67623
9.79845
10.3097
10.6418
10.6923
10.2721
9.30996
7.81095
5.93963
4.01618
2.48002
1.57303
1.60435
8.26246
8.76166
9.09868
9.17703
8.84127
8.03354
6.75109
5.17637
3.60979
2.3894
1.59506
1.44059
6.99771
7.47385
7.81194
7.91713
7.66907
7.03706
5.97881
4.68145
3.40213
2.38176
1.64356
1.22626
6.03012
6.48069
6.81763
6.94747
6.78043
6.30527
5.45138
4.38564
3.32199
2.42553
1.68495
0.961284
5.44619
5.88417
6.22751
6.38425
6.28388
5.91799
5.22111
4.32303
3.3853
2.53142
1.70408
0.668096
5.6437
6.13242
6.52929
6.73267
6.67283
6.32268
5.68768
4.83748
3.86785
2.84993
1.70786
0.375363
10.4566
11.4988
12.417
12.9538
12.8595
12.1837
10.9694
9.20833
6.96204
4.35612
2.03731
0.478593
40.619
14.1345
11.8594
11.922
12.9904
14.5514
16.3569
18.1592
19.5782
20.5421
21.1512
21.4816
22.4804
10.256
8.99899
9.2503
10.2609
11.6718
13.2695
14.8473
16.1422
17.0901
17.7651
18.247
15.2033
7.5297
6.82101
7.17766
8.08787
9.31805
10.6963
12.0556
13.2255
14.1439
14.8716
15.4737
10.8192
5.62063
5.1932
5.5715
6.36477
7.41194
8.58152
9.74325
10.7804
11.6529
12.3976
13.0643
7.83935
4.24907
3.97722
4.33248
5.00902
5.88585
6.8668
7.85269
8.76202
9.56679
10.2914
10.9727
5.68301
3.23561
3.06179
3.3805
3.95198
4.67898
5.49534
6.3271
7.11602
7.84249
8.52241
9.17913
4.07971
2.47584
2.3661
2.65133
3.13633
3.73767
4.41519
5.11564
5.79599
6.44198
7.06386
7.6749
2.90874
1.89737
1.83219
2.09505
2.51619
3.0174
3.58257
4.17628
4.76481
5.33649
5.89778
6.45612
2.01157
1.42538
1.41766
1.67716
2.05939
2.48668
2.96732
3.48209
4.00165
4.51408
5.02322
5.5332
1.30259
1.02794
1.0978
1.39443
1.77025
2.15439
2.58346
3.05356
3.53183
4.01044
4.49175
4.97457
0.759716
0.713863
0.912508
1.30135
1.70727
2.09139
2.52973
3.03248
3.55132
4.07415
4.60145
5.12867
0.570959
0.807936
1.51402
2.20579
2.78121
3.36133
4.15274
5.15256
6.21621
7.2793
8.33547
9.40032
21.6842
21.9138
22.0448
22.0096
21.6979
21.1391
20.3829
19.495
18.5457
17.61
17.2236
19.5965
18.638
18.9935
19.2095
19.2034
18.7997
18.008
16.8385
15.2955
13.3086
10.6104
6.42843
2.87869
15.9962
16.4279
16.6988
16.7051
16.2296
15.2451
13.7311
11.6777
9.05018
5.84219
2.73255
1.82398
13.6624
14.1412
14.4449
14.4595
13.9555
12.876
11.198
8.96549
6.3144
3.6302
1.84319
1.72714
11.5996
12.1048
12.4264
12.4549
11.9728
10.9087
9.25512
7.1282
4.80285
2.78492
1.61223
1.67621
9.79998
10.3102
10.642
10.6927
10.273
9.31142
7.81279
5.94135
4.01724
2.48026
1.57294
1.60427
8.26422
8.76226
9.09888
9.17707
8.84157
8.03417
6.75196
5.17714
3.61015
2.38932
1.59489
1.44055
6.99969
7.47465
7.81225
7.91705
7.66903
7.03715
5.97905
4.68165
3.40209
2.38157
1.64337
1.22628
6.03232
6.48172
6.8182
6.94746
6.78027
6.30508
5.45125
4.38551
3.32176
2.42528
1.68484
0.961348
5.44857
5.88563
6.22847
6.38449
6.2838
5.9177
5.22083
4.32277
3.385
2.53119
1.70408
0.668216
5.64658
6.13459
6.53084
6.73332
6.67288
6.32243
5.68734
4.83713
3.86752
2.84977
1.708
0.375485
10.4625
11.5037
12.4205
12.9548
12.8594
12.183
10.9685
9.20763
6.96161
4.35605
2.03758
0.478766
40.679
14.1539
11.8744
11.936
13.0043
14.5656
16.3715
18.1744
19.5936
20.5573
21.166
21.4957
22.5231
10.2736
9.01308
9.2635
10.274
11.6852
13.2834
14.8616
16.1568
17.1044
17.7788
18.2598
15.2366
7.5448
6.83376
7.18975
8.09994
9.3304
10.7091
12.0688
13.2389
14.1571
14.8842
15.4853
10.8454
5.63344
5.20438
5.5823
6.37564
7.42307
8.59303
9.75511
10.7924
11.6648
12.4088
13.0747
7.8599
4.2598
3.98686
4.34197
5.01866
5.89573
6.87701
7.86319
8.77262
9.57723
10.3014
10.9819
5.69888
3.2445
3.06998
3.38875
3.96044
4.68766
5.5043
6.33629
7.12531
7.85165
8.53116
9.1873
4.0916
2.48311
2.37299
2.65844
3.14371
3.74527
4.42302
5.12366
5.80411
6.45
7.07156
7.68209
2.91756
1.90327
1.83794
2.10118
2.52266
3.02409
3.58944
4.18332
4.77194
5.34356
5.90462
6.46256
2.0179
1.43005
1.42244
1.6825
2.06516
2.49266
2.97345
3.48839
4.00806
4.52047
5.02946
5.53914
1.30684
1.03151
1.10177
1.39927
1.77565
2.16002
2.58923
3.05949
3.5379
4.01654
4.49777
4.98043
0.762265
0.716525
0.916115
1.30625
1.7129
2.09728
2.5358
3.03882
3.55792
4.08085
4.60819
5.13535
0.572682
0.810975
1.52028
2.21437
2.79084
3.37133
4.16329
5.164
6.22848
7.29205
8.34873
9.41342
21.6972
21.9255
22.0545
22.0163
21.7021
21.1408
20.3823
19.4919
18.5394
17.6044
17.2184
19.594
18.6497
19.0037
19.2179
19.2089
18.8028
18.0088
16.8375
15.2929
13.3052
10.608
6.42859
2.87996
16.0064
16.4368
16.706
16.7099
16.2321
15.2456
13.7304
11.6763
9.04904
5.84249
2.73372
1.82504
13.6715
14.1488
14.451
14.4637
13.9577
12.8766
11.1978
8.96512
6.31466
3.63126
1.84408
1.72807
11.6076
12.1115
12.4319
12.4587
11.9749
10.9096
9.25543
7.12856
4.80366
2.78593
1.61284
1.677
9.80709
10.3162
10.6469
10.6962
10.2751
9.31256
7.81348
5.94209
4.01815
2.48103
1.57339
1.60478
8.27057
8.76761
9.10335
9.18039
8.84382
8.03554
6.75287
5.17804
3.61099
2.38984
1.5951
1.44087
7.00544
7.47953
7.81638
7.9202
7.67138
7.03871
5.98008
4.68261
3.40282
2.38192
1.64342
1.22637
6.03773
6.48627
6.82216
6.95048
6.78272
6.30685
5.45236
4.38652
3.32242
2.42544
1.68468
0.961262
5.45393
5.89018
6.23239
6.38756
6.28642
5.91967
5.22215
4.32383
3.38561
2.5312
1.70373
0.668078
5.6527
6.13982
6.5353
6.7369
6.67596
6.32489
5.68907
4.8384
3.86812
2.84957
1.7075
0.375309
10.4741
11.5142
12.4297
12.9621
12.8657
12.1879
10.9722
9.20998
6.96242
4.35549
2.03688
0.478422
40.6521
14.1452
11.8683
11.9309
12.9999
14.5617
16.368
18.1711
19.5905
20.5546
21.1636
21.4936
22.5021
10.2648
9.00635
9.25757
10.2686
11.6801
13.2785
14.8568
16.1521
17.1001
17.7749
18.2563
15.2189
7.53659
6.82685
7.18338
8.09387
9.3245
10.7033
12.063
13.2332
14.1517
14.8793
15.4809
10.8307
5.62594
5.19769
5.57586
6.3693
7.41678
8.58673
9.74882
10.7862
11.6589
12.4034
13.0699
7.84786
4.25315
3.98063
4.33573
5.01236
5.88937
6.87058
7.85673
8.76625
9.57112
10.2957
10.9768
5.68922
3.23876
3.06436
3.38291
3.9544
4.68148
5.498
6.32993
7.11901
7.84557
8.5255
9.18216
4.08424
2.47831
2.36805
2.65309
3.13806
3.73941
4.417
5.11755
5.79802
6.44409
7.066
7.67701
2.912
1.89932
1.83368
2.09634
2.51743
3.01861
3.58377
4.17752
4.76612
5.33786
5.8992
6.45754
2.01389
1.42689
1.4188
1.67811
2.06031
2.48752
2.9681
3.48287
4.00246
4.51494
5.02413
5.53412
1.30415
1.02904
1.09866
1.39515
1.77098
2.15505
2.584
3.05405
3.53233
4.01097
4.49232
4.97517
0.76068
0.714621
0.913151
1.30199
1.70799
2.09204
2.5302
3.03284
3.55168
4.07455
4.6019
5.12917
0.571682
0.808755
1.51482
2.20703
2.78259
3.36254
4.15352
5.15318
6.21679
7.28008
8.33636
9.4013
21.6953
21.9238
22.0532
22.0151
21.7005
21.1386
20.3792
19.4875
18.5334
17.5961
17.2072
19.5768
18.6466
19.0011
19.2155
19.2068
18.8004
18.0058
16.8335
15.2878
13.299
10.601
6.42271
2.87751
16.0027
16.4335
16.7031
16.7074
16.2293
15.2423
13.7263
11.6714
9.04367
5.83756
2.73122
1.82393
13.6673
14.1453
14.4479
14.4609
13.9549
12.8734
11.194
8.9609
6.31054
3.62825
1.84282
1.72718
11.6033
12.1078
12.4287
12.4559
11.9722
10.9067
9.25213
7.12515
4.80069
2.78408
1.6121
1.67623
9.80268
10.3124
10.6437
10.6934
10.2725
9.30993
7.81072
5.93941
4.01604
2.47987
1.57288
1.6043
8.26615
8.76386
9.10009
9.1776
8.84126
8.03317
6.75057
5.17594
3.60946
2.38912
1.59485
1.44053
7.00102
7.47578
7.81312
7.91743
7.66887
7.03652
5.97814
4.6809
3.40169
2.38143
1.64331
1.22622
6.03321
6.48252
6.81882
6.94775
6.78022
6.3047
5.45066
4.38504
3.32149
2.42516
1.6847
0.961257
5.44919
5.88621
6.22894
6.38474
6.28382
5.91747
5.22045
4.32245
3.38479
2.53102
1.70386
0.668103
5.64711
6.13513
6.53131
6.7336
6.67297
6.32232
5.6871
4.83693
3.86728
2.84948
1.70768
0.375385
10.4636
11.5049
12.4216
12.9555
12.8598
12.183
10.9682
9.20714
6.96092
4.35536
2.03712
0.478598
40.6056
14.1309
11.8567
11.9197
12.9884
14.5499
16.3558
18.1582
19.5771
20.5411
21.1504
21.4817
22.4706
10.2526
8.99647
9.24814
10.2592
11.6705
13.2687
14.8467
16.1419
17.0902
17.7659
18.2479
15.1959
7.52677
6.81876
7.17574
8.08628
9.31691
10.6956
12.0552
13.2254
14.1443
14.8727
15.4748
10.8135
5.6182
5.19127
5.56981
6.36331
7.41082
8.58075
9.74274
10.7801
11.653
12.3983
13.0652
7.83514
4.24709
3.97563
4.33103
5.0077
5.88473
6.86591
7.85198
8.76144
9.56636
10.2914
10.973
5.67996
3.23402
3.0605
3.37929
3.95079
4.67787
5.49435
6.32618
7.11512
7.84158
8.52167
9.17875
4.0775
2.47456
2.36509
2.65035
3.13528
3.7366
4.41414
5.11456
5.79483
6.44068
7.06253
7.67376
2.90719
1.89637
1.83142
2.09429
2.51529
3.0164
3.5815
4.17511
4.76347
5.3349
5.89598
6.45434
2.01056
1.42465
1.41712
1.67659
2.05862
2.48573
2.96625
3.48088
4.00021
4.51231
5.02111
5.53093
1.302
1.02748
1.09745
1.39402
1.76956
2.15346
2.58237
3.05229
3.53031
4.00854
4.4894
4.97192
0.759417
0.713636
0.912341
1.30103
1.70658
2.09039
2.52857
3.03111
3.54963
4.07199
4.59868
5.12539
0.570714
0.807796
1.51387
2.20501
2.77983
3.35961
4.15095
5.15044
6.21321
7.27506
8.32949
9.39224
)
;

boundaryField
{
    rotor
    {
        Cmu             0.09;
        kappa           0.41;
        E               9.8;
        type            epsilonWallFunction;
        value           nonuniform List<scalar> 
192
(
4.45426
3.56808
4.35174
4.21583
3.54062
3.60361
5.72192
26.4967
52.1836
64.8466
72.4158
77.6306
80.228
81.0247
80.3015
78.5426
75.5193
70.5632
63.9635
55.5267
45.2894
34.1377
22.7164
30.0077
4.43105
3.55047
4.34112
4.20797
3.53658
3.59679
5.69086
26.3401
52.0596
64.745
72.3097
77.5337
80.1366
80.9407
80.2147
78.4746
75.4595
70.5139
63.9238
55.4974
45.2689
34.125
22.7085
29.9944
4.43067
3.54969
4.3349
4.19964
3.52848
3.59613
5.73649
26.6147
52.2709
64.9159
72.4929
77.7025
80.3011
81.0899
80.3644
78.5976
75.5682
70.603
63.9987
55.5522
45.3102
34.149
22.7225
30.0144
4.43179
3.55105
4.34181
4.20868
3.53735
3.59817
5.69669
26.3746
52.0933
64.7756
72.3414
77.5643
80.1669
80.9697
80.2435
78.5016
75.4845
70.5367
63.9437
55.5139
45.2807
34.1346
22.7156
30.0065
4.45426
10.7986
14.961
20.6538
22.7967
23.3518
21.6228
20.1655
19.5813
20.4327
24.4452
115.932
30.0065
92.0749
140.837
177.202
203.951
228.391
249.309
274.924
304.293
334.848
372.438
433.793
4.43105
10.7942
14.9354
20.6256
22.7676
23.328
21.6064
20.1551
19.5763
20.4312
24.4473
115.957
30.0077
92.081
140.852
177.228
203.984
228.431
249.354
274.975
304.346
334.91
372.502
433.868
4.43067
10.7983
14.9612
20.6686
22.8219
23.3763
21.6446
20.1821
19.5929
20.4411
24.4527
115.964
29.9944
92.0484
140.81
177.175
203.928
228.372
249.294
274.914
304.289
334.854
372.458
433.833
4.43179
10.7965
14.9387
20.628
22.7686
23.3286
21.606
20.1531
19.5745
20.4306
24.4497
115.985
30.0144
92.1034
140.893
177.29
204.063
228.525
249.461
275.096
304.484
335.063
372.673
434.068
)
;
    }
    stator
    {
        Cmu             0.09;
        kappa           0.41;
        E               9.8;
        type            epsilonWallFunction;
        value           nonuniform List<scalar> 
192
(
10.4566
11.4988
12.417
12.9538
12.8595
12.1837
10.9694
9.20833
6.96204
4.35612
2.03731
0.478593
0.570959
0.807936
1.51402
2.20579
2.78121
3.36133
4.15274
5.15256
6.21621
7.2793
8.33547
9.40032
10.4625
11.5037
12.4205
12.9548
12.8594
12.183
10.9685
9.20763
6.96161
4.35605
2.03758
0.478766
0.572682
0.810975
1.52028
2.21437
2.79084
3.37133
4.16329
5.164
6.22848
7.29205
8.34873
9.41342
10.4741
11.5142
12.4297
12.9621
12.8657
12.1879
10.9722
9.20998
6.96242
4.35549
2.03688
0.478422
0.571682
0.808755
1.51482
2.20703
2.78259
3.36254
4.15352
5.15318
6.21679
7.28008
8.33636
9.4013
10.4636
11.5049
12.4216
12.9555
12.8598
12.183
10.9682
9.20714
6.96092
4.35536
2.03712
0.478598
0.570714
0.807796
1.51387
2.20501
2.77983
3.35961
4.15095
5.15044
6.21321
7.27506
8.32949
9.39224
40.619
22.4804
15.2033
10.8192
7.83935
5.68301
4.07971
2.90874
2.01157
1.30259
0.759716
0.570959
19.5763
2.87719
1.82385
1.7272
1.67623
1.60435
1.44059
1.22626
0.961284
0.668096
0.375363
0.478593
40.679
22.5231
15.2366
10.8454
7.8599
5.69888
4.0916
2.91756
2.0179
1.30684
0.762265
0.572682
19.5965
2.87869
1.82398
1.72714
1.67621
1.60427
1.44055
1.22628
0.961348
0.668216
0.375485
0.478766
40.6521
22.5021
15.2189
10.8307
7.84786
5.68922
4.08424
2.912
2.01389
1.30415
0.76068
0.571682
19.594
2.87996
1.82504
1.72807
1.677
1.60478
1.44087
1.22637
0.961262
0.668078
0.375309
0.478422
40.6056
22.4706
15.1959
10.8135
7.83514
5.67996
4.0775
2.90719
2.01056
1.302
0.759417
0.570714
19.5768
2.87751
1.82393
1.72718
1.67623
1.6043
1.44053
1.22622
0.961257
0.668103
0.375385
0.478598
)
;
    }
    front
    {
        type            empty;
    }
    back
    {
        type            empty;
    }
}


// ************************************************************************* //
