/*--------------------------------*- C++ -*----------------------------------*\
| =========                 |                                                 |
| \\      /  F ield         | OpenFOAM: The Open Source CFD Toolbox           |
|  \\    /   O peration     | Version:  4.0                                   |
|   \\  /    A nd           | Web:      www.OpenFOAM.org                      |
|    \\/     M anipulation  |                                                 |
\*---------------------------------------------------------------------------*/
FoamFile
{
    version     2.0;
    format      ascii;
    class       volScalarField;
    location    "300";
    object      k;
}
// * * * * * * * * * * * * * * * * * * * * * * * * * * * * * * * * * * * * * //

dimensions      [0 2 -2 0 0 0 0];

internalField   nonuniform List<scalar> 
3072
(
0.0390369
0.0504016
0.0575822
0.0564066
0.0502165
0.0506827
0.0682941
0.189206
0.300032
0.347553
0.374211
0.392192
0.0757947
0.129941
0.133385
0.115176
0.112612
0.200643
0.237649
0.31557
0.413572
0.494909
0.578469
0.654055
0.100555
0.195616
0.244616
0.250871
0.241632
0.298413
0.384721
0.495409
0.602973
0.699158
0.78355
0.850745
0.1325
0.257156
0.285492
0.287024
0.326818
0.419347
0.528692
0.638011
0.737174
0.82395
0.897208
0.954317
0.149611
0.302163
0.340714
0.357333
0.423142
0.524861
0.634088
0.736592
0.826182
0.903489
0.968545
1.01989
0.16014
0.326189
0.378083
0.419807
0.499555
0.602515
0.706782
0.80075
0.88196
0.951917
1.01115
1.0591
0.159625
0.329483
0.397305
0.466071
0.559959
0.663533
0.762099
0.848847
0.923167
0.986879
1.04107
1.08583
0.159435
0.331392
0.421702
0.519684
0.63116
0.736568
0.828871
0.906758
0.971995
1.02717
1.07401
1.11318
0.163107
0.347059
0.484829
0.625249
0.754689
0.859029
0.939848
1.00242
1.05185
1.09215
1.12589
1.1542
0.17457
0.402368
0.639142
0.83321
0.971065
1.06225
1.11985
1.15605
1.1795
1.19577
1.20821
1.21833
0.204202
0.547305
0.942389
1.17542
1.29326
1.34859
1.36662
1.36418
1.35187
1.33572
1.31946
1.3046
0.597147
0.968704
1.39059
1.5749
1.63189
1.6356
1.6098
1.56966
1.52387
1.47706
1.43287
1.39265
0.400943
0.403686
0.401262
0.395466
0.385317
0.368325
0.345022
0.314036
0.274183
0.22712
0.173103
0.1392
0.714583
0.759706
0.781877
0.782243
0.767503
0.746443
0.719848
0.684001
0.62889
0.511471
0.373248
0.316628
0.898997
0.925782
0.931833
0.926283
0.911941
0.894105
0.87444
0.850153
0.811534
0.733733
0.550262
0.449405
0.995393
1.0207
1.03137
1.03167
1.02512
1.01686
1.009
1.0007
0.984244
0.936014
0.778871
0.55649
1.05781
1.0828
1.09626
1.10126
1.10127
1.10059
1.10338
1.11068
1.1139
1.09061
0.966719
0.646097
1.09589
1.12191
1.13843
1.14804
1.15459
1.16283
1.17748
1.20046
1.22629
1.23203
1.15585
0.733386
1.12136
1.14808
1.16715
1.18096
1.19331
1.20928
1.23443
1.27233
1.31951
1.35254
1.32036
0.815426
1.1451
1.17025
1.18972
1.20564
1.22159
1.24288
1.27624
1.32763
1.3963
1.45814
1.45948
0.909909
1.17772
1.19704
1.21314
1.22783
1.24409
1.26715
1.30496
1.36692
1.45678
1.55058
1.57624
1.01506
1.22695
1.23472
1.24264
1.25213
1.26491
1.28567
1.32289
1.38867
1.49607
1.63008
1.70112
1.12527
1.29213
1.28289
1.27829
1.27955
1.28582
1.30094
1.33267
1.39602
1.51119
1.68371
1.84123
1.2537
1.35792
1.33032
1.31066
1.30054
1.30209
1.31143
1.33647
1.39159
1.49968
1.69809
1.96559
1.43771
0.0389083
0.050239
0.0574918
0.0563401
0.0501822
0.0506233
0.0680531
0.188446
0.299552
0.347192
0.37385
0.391872
0.0757783
0.129945
0.133362
0.11521
0.112387
0.200209
0.237298
0.314919
0.412961
0.494184
0.577744
0.653326
0.100443
0.195285
0.244381
0.250793
0.241419
0.297831
0.384032
0.494575
0.602114
0.698249
0.782645
0.849866
0.132381
0.256923
0.28523
0.286701
0.326271
0.418616
0.527885
0.637145
0.73628
0.823028
0.896283
0.953406
0.149488
0.301899
0.340375
0.356861
0.422518
0.524133
0.633299
0.735771
0.825332
0.90261
0.967649
1.019
0.160033
0.325958
0.377745
0.419339
0.498976
0.601859
0.70608
0.800008
0.881187
0.951103
1.01032
1.05825
0.159546
0.329289
0.397016
0.465667
0.559477
0.662994
0.761507
0.848212
0.922489
0.986157
1.04031
1.08506
0.159384
0.331259
0.421484
0.519403
0.630822
0.736175
0.828423
0.906257
0.971442
1.02657
1.07336
1.11251
0.163085
0.347007
0.484739
0.625142
0.754544
0.858828
0.939585
1.00209
1.05146
1.0917
1.12538
1.15365
0.174568
0.402414
0.639234
0.83331
0.971144
1.06228
1.11981
1.15592
1.1793
1.1955
1.20787
1.21794
0.204222
0.547434
0.942608
1.17568
1.29352
1.34881
1.36678
1.36426
1.35186
1.33563
1.3193
1.30437
0.597217
0.968855
1.39079
1.57516
1.63217
1.63588
1.61004
1.56985
1.524
1.47711
1.43285
1.39257
0.400637
0.4034
0.400983
0.395238
0.385116
0.368156
0.344882
0.313927
0.274102
0.227065
0.173065
0.13916
0.713842
0.758948
0.781173
0.781683
0.767038
0.746045
0.71951
0.683719
0.628658
0.511308
0.373151
0.316555
0.898152
0.924994
0.931092
0.92564
0.91138
0.893623
0.87403
0.849807
0.81125
0.733511
0.550119
0.449318
0.994509
1.01985
1.0306
1.03096
1.02449
1.01631
1.00853
1.00029
0.983905
0.935743
0.77868
0.556382
1.05693
1.08196
1.09547
1.10052
1.10059
1.09998
1.10285
1.11023
1.11352
1.09031
0.966499
0.64598
1.09505
1.12109
1.13764
1.1473
1.1539
1.16221
1.17692
1.19998
1.22589
1.2317
1.1556
0.733262
1.12058
1.14731
1.16641
1.18025
1.19264
1.20866
1.23388
1.27184
1.31909
1.35219
1.32011
0.815297
1.14441
1.16956
1.18904
1.20499
1.22098
1.2423
1.2757
1.32715
1.39588
1.4578
1.45923
0.909778
1.17715
1.19646
1.21256
1.22727
1.24355
1.26664
1.30448
1.36648
1.45639
1.55026
1.576
1.01494
1.22653
1.23427
1.24219
1.25168
1.26447
1.28525
1.3225
1.38831
1.49575
1.6298
1.70092
1.12515
1.29186
1.28259
1.27797
1.27922
1.2855
1.30064
1.33238
1.39574
1.51094
1.68351
1.84105
1.2536
1.35779
1.33015
1.31047
1.30034
1.3019
1.31125
1.3363
1.39142
1.49953
1.69795
1.96549
1.43764
0.0389048
0.0502302
0.0574344
0.0562628
0.0501019
0.0506111
0.0683987
0.189758
0.300361
0.347796
0.374472
0.39243
0.075793
0.129917
0.133249
0.114925
0.112544
0.200817
0.237887
0.316065
0.414034
0.495481
0.579051
0.654651
0.100552
0.19567
0.244588
0.250722
0.24162
0.298868
0.385256
0.496069
0.603659
0.699897
0.784299
0.851484
0.132559
0.257235
0.285577
0.287164
0.327201
0.41994
0.529337
0.638714
0.737916
0.82473
0.898006
0.955116
0.149719
0.302343
0.34092
0.357682
0.42364
0.525465
0.634744
0.737284
0.826912
0.904262
0.969348
1.02071
0.160251
0.326401
0.378361
0.42022
0.500071
0.603098
0.707405
0.801405
0.882655
0.952659
1.01193
1.05991
0.159732
0.329702
0.39762
0.466502
0.560459
0.664077
0.762673
0.849452
0.923812
0.98757
1.0418
1.0866
0.159523
0.331586
0.422003
0.520077
0.6316
0.73704
0.829371
0.907287
0.972562
1.02778
1.07466
1.11388
0.163173
0.347211
0.485073
0.625532
0.755002
0.859371
0.940221
1.00282
1.0523
1.09264
1.12642
1.15477
0.174621
0.402467
0.639279
0.83335
0.971216
1.06243
1.12006
1.15629
1.17979
1.1961
1.20858
1.21875
0.204248
0.547402
0.942481
1.17545
1.29328
1.34862
1.36667
1.36426
1.35198
1.33587
1.31966
1.30486
0.59725
0.968889
1.39071
1.57492
1.63189
1.63559
1.60977
1.56965
1.52388
1.4771
1.43294
1.39277
0.401181
0.403899
0.401468
0.395648
0.385481
0.368462
0.345147
0.314131
0.274267
0.22717
0.173135
0.13922
0.715164
0.760249
0.782375
0.782705
0.76791
0.746805
0.720176
0.684285
0.629124
0.511643
0.373337
0.31668
0.899716
0.92646
0.932481
0.926872
0.912479
0.894591
0.874881
0.850549
0.811878
0.734012
0.550446
0.449493
0.996184
1.02146
1.03209
1.03236
1.02577
1.01745
1.00954
1.0012
0.984689
0.936387
0.779138
0.55662
1.05863
1.08361
1.09704
1.10201
1.10199
1.10128
1.10402
1.11127
1.11444
1.09108
0.967066
0.646261
1.09671
1.12273
1.13924
1.14883
1.15535
1.16357
1.17818
1.20113
1.2269
1.23257
1.15627
0.733585
1.12215
1.14888
1.16795
1.18175
1.19409
1.21004
1.23518
1.27305
1.32018
1.35315
1.32084
0.815657
1.14582
1.17099
1.19047
1.2064
1.22235
1.24363
1.27699
1.32838
1.39702
1.4588
1.46002
0.910176
1.17834
1.19769
1.21381
1.22852
1.24479
1.26786
1.3057
1.36768
1.45753
1.55129
1.57682
1.01537
1.22743
1.23523
1.2432
1.25272
1.26552
1.2863
1.32357
1.3894
1.49683
1.63082
1.70173
1.12562
1.29245
1.28326
1.27872
1.28002
1.28631
1.30148
1.33326
1.3967
1.51194
1.68447
1.84187
1.25408
1.3581
1.33055
1.31095
1.30089
1.30248
1.31187
1.33698
1.3922
1.50038
1.69884
1.96625
1.43815
0.0389124
0.0502443
0.0574979
0.0563462
0.0501892
0.0506357
0.0680984
0.188612
0.299681
0.347301
0.373959
0.391975
0.075789
0.12996
0.133382
0.115234
0.11244
0.20031
0.237384
0.31506
0.413101
0.494346
0.577912
0.653503
0.100459
0.19531
0.244449
0.250886
0.24151
0.297909
0.384136
0.494714
0.602268
0.698418
0.782818
0.850037
0.132391
0.25697
0.285293
0.28676
0.32631
0.418672
0.527976
0.637262
0.736411
0.823171
0.896431
0.953552
0.149495
0.301937
0.340408
0.356873
0.42253
0.524172
0.633366
0.735859
0.825433
0.902721
0.967766
1.01911
0.160036
0.325983
0.377764
0.419329
0.498966
0.601871
0.706115
0.800059
0.881249
0.951176
1.01039
1.05833
0.159544
0.329294
0.397008
0.465628
0.559431
0.662961
0.761491
0.848211
0.9225
0.986181
1.04035
1.0851
0.159372
0.33125
0.421448
0.519324
0.630734
0.736092
0.82835
0.906197
0.971396
1.02654
1.07335
1.1125
0.163074
0.346986
0.484687
0.625063
0.754455
0.858729
0.939482
1.00199
1.05137
1.09163
1.12533
1.15361
0.174563
0.402411
0.639226
0.833303
0.971115
1.06222
1.11972
1.15583
1.17921
1.19541
1.2078
1.21788
0.204233
0.547511
0.942722
1.17578
1.29359
1.34883
1.36676
1.36421
1.3518
1.33557
1.31924
1.30432
0.597309
0.969075
1.39104
1.57538
1.63236
1.63602
1.61013
1.5699
1.52402
1.47712
1.43285
1.39256
0.400738
0.403496
0.401078
0.395328
0.385201
0.368235
0.344953
0.313989
0.274149
0.227107
0.1731
0.139197
0.714019
0.759119
0.781333
0.781832
0.767173
0.74617
0.719626
0.683828
0.628765
0.511391
0.373216
0.316616
0.898316
0.925144
0.931233
0.925767
0.911496
0.89373
0.87413
0.8499
0.811337
0.733593
0.550185
0.449374
0.99465
1.01998
1.03072
1.03107
1.02459
1.0164
1.00861
1.00036
0.983974
0.935811
0.778746
0.556437
1.05704
1.08206
1.09556
1.1006
1.10066
1.10005
1.10291
1.11028
1.11357
1.09036
0.966556
0.646027
1.09512
1.12117
1.13771
1.14736
1.15395
1.16225
1.17696
1.20001
1.22592
1.23173
1.15565
0.733302
1.12063
1.14735
1.16644
1.18028
1.19267
1.20869
1.2339
1.27185
1.31911
1.35221
1.32014
0.815329
1.14441
1.16957
1.18905
1.205
1.22098
1.2423
1.2757
1.32715
1.39588
1.4578
1.45924
0.909801
1.17712
1.19643
1.21255
1.22726
1.24354
1.26662
1.30446
1.36645
1.45636
1.55024
1.576
1.01495
1.22648
1.23423
1.24216
1.25165
1.26444
1.28522
1.32246
1.38825
1.49568
1.62974
1.70089
1.12514
1.29182
1.28255
1.27794
1.27919
1.28547
1.3006
1.33233
1.39566
1.51084
1.68339
1.84098
1.25356
1.35778
1.33014
1.31046
1.30032
1.30188
1.31121
1.33623
1.39131
1.49938
1.69778
1.96536
1.43755
1.75071
1.74835
1.76129
1.76915
1.76586
1.74911
1.71316
1.66636
1.61265
1.55502
1.49811
1.44366
1.7258
1.68606
1.66992
1.66451
1.66231
1.65499
1.63918
1.61362
1.57563
1.52827
1.47819
1.42628
1.59218
1.5654
1.53977
1.51943
1.50349
1.49194
1.47831
1.46155
1.44102
1.41445
1.38176
1.34312
1.43755
1.41776
1.3935
1.36705
1.34135
1.31846
1.29887
1.28236
1.26719
1.25149
1.23601
1.22173
1.39488
1.35551
1.32651
1.30856
1.30644
1.31298
1.33305
1.37808
1.46284
1.63451
1.94694
1.87282
1.37827
1.34016
1.31279
1.29643
1.29475
1.30047
1.31785
1.35287
1.41345
1.52083
1.76402
1.78174
1.3092
1.28559
1.27021
1.2629
1.26305
1.2697
1.28399
1.30816
1.35149
1.41036
1.55986
1.61352
1.21332
1.21064
1.20681
1.20495
1.20459
1.2095
1.22239
1.24279
1.27896
1.31586
1.40091
1.4479
1.75081
1.74844
1.7614
1.76931
1.76604
1.74931
1.71338
1.66657
1.61282
1.55514
1.49818
1.44368
1.72597
1.68622
1.67007
1.66468
1.66249
1.65517
1.63938
1.61381
1.57582
1.52843
1.47831
1.42636
1.59243
1.56561
1.53998
1.51964
1.5037
1.49214
1.47851
1.46176
1.44122
1.41465
1.38193
1.34326
1.4378
1.41801
1.39373
1.36726
1.34156
1.31867
1.29908
1.28257
1.26741
1.25169
1.23621
1.22192
1.39485
1.35545
1.32643
1.30847
1.30635
1.31291
1.33299
1.37803
1.46281
1.63449
1.94692
1.8728
1.37832
1.34019
1.3128
1.29644
1.29477
1.30051
1.3179
1.35293
1.41353
1.52093
1.76412
1.78183
1.30932
1.28569
1.27032
1.26301
1.26318
1.26984
1.28415
1.30834
1.35168
1.41057
1.56008
1.61373
1.21351
1.21083
1.20702
1.20518
1.20483
1.20976
1.22267
1.2431
1.27928
1.3162
1.40125
1.44821
1.7508
1.74849
1.76145
1.76928
1.76598
1.74919
1.7132
1.66639
1.61267
1.55504
1.49814
1.44372
1.72605
1.68633
1.67023
1.6648
1.66258
1.65522
1.6394
1.61379
1.57575
1.52837
1.47827
1.42637
1.59264
1.56581
1.54019
1.51985
1.5039
1.49231
1.47865
1.46188
1.44131
1.41471
1.38195
1.3433
1.43811
1.4183
1.39402
1.36754
1.34182
1.31892
1.29929
1.28274
1.26756
1.25182
1.23632
1.222
1.39498
1.35566
1.32672
1.30882
1.30676
1.31334
1.33347
1.37859
1.46346
1.63522
1.94761
1.87341
1.37838
1.3403
1.31297
1.29666
1.29501
1.30078
1.31821
1.3533
1.41397
1.52144
1.76471
1.78238
1.30937
1.28576
1.27041
1.26312
1.2633
1.26997
1.28431
1.30854
1.35194
1.41089
1.56052
1.61418
1.21355
1.21086
1.20703
1.20519
1.20485
1.20979
1.22273
1.24319
1.27942
1.3164
1.40155
1.44856
1.75126
1.74882
1.76178
1.76967
1.76639
1.74962
1.71362
1.66676
1.61296
1.55525
1.49826
1.44374
1.72656
1.68675
1.67059
1.66517
1.66295
1.6556
1.63977
1.61415
1.57607
1.52864
1.47848
1.42651
1.59308
1.56622
1.54056
1.52021
1.50423
1.49263
1.47897
1.46219
1.4416
1.41497
1.38217
1.34347
1.43846
1.41864
1.39433
1.36783
1.34209
1.31916
1.29953
1.28296
1.26776
1.252
1.23648
1.22213
1.39491
1.3555
1.32646
1.30848
1.30633
1.31287
1.33291
1.37789
1.46261
1.63424
1.94669
1.87258
1.37844
1.34028
1.31287
1.29647
1.29477
1.30046
1.31777
1.35275
1.41328
1.52061
1.76375
1.78149
1.30949
1.28581
1.27038
1.26298
1.26315
1.26973
1.28396
1.30807
1.35133
1.41015
1.55958
1.61324
1.21361
1.21087
1.20697
1.20506
1.20466
1.2095
1.22233
1.24267
1.27878
1.31562
1.40062
1.44759
1.27757
1.24711
1.21586
1.18559
1.15902
1.13688
1.11938
1.10593
1.09581
1.08909
1.08743
1.09221
1.14695
1.11536
1.084
1.05441
1.02844
1.00648
0.988763
0.974826
0.964095
0.956036
0.951025
0.952164
1.04151
1.01414
0.985909
0.957987
0.931475
0.906786
0.884281
0.863717
0.844399
0.825365
0.807594
0.797064
0.953897
0.933056
0.909236
0.882936
0.854585
0.824513
0.793163
0.760315
0.725039
0.685716
0.644616
0.615594
1.10392
1.10673
1.09679
1.09772
1.10771
1.12831
1.15896
1.19559
1.23613
1.27257
1.30613
1.31031
0.963874
0.965927
0.953208
0.96023
0.983468
1.02022
1.06591
1.11374
1.15498
1.18192
1.19637
1.1837
0.810687
0.826896
0.820173
0.833787
0.867009
0.913741
0.96747
1.02018
1.0588
1.08057
1.08825
1.07267
0.633154
0.693868
0.701187
0.721931
0.761146
0.812455
0.868928
0.922112
0.959088
0.979637
0.986799
0.97591
1.27779
1.24732
1.21606
1.1858
1.15923
1.1371
1.11961
1.10616
1.09604
1.08932
1.08767
1.09247
1.14713
1.11554
1.08418
1.05461
1.02865
1.00671
0.988995
0.975068
0.964347
0.956303
0.951321
0.952497
1.04166
1.01429
0.98607
0.958168
0.931677
0.907009
0.884519
0.863974
0.844673
0.825664
0.807926
0.797452
0.954021
0.933171
0.909366
0.883092
0.854769
0.824724
0.7934
0.760576
0.725323
0.686032
0.644956
0.615971
1.10422
1.10706
1.09714
1.09808
1.1081
1.12871
1.15937
1.19602
1.23656
1.273
1.30655
1.3107
0.964267
0.966365
0.953681
0.960715
0.983966
1.02073
1.06642
1.11425
1.15549
1.18241
1.19686
1.18416
0.811149
0.827424
0.820737
0.83436
0.867585
0.914318
0.968045
1.02075
1.05936
1.08112
1.08879
1.07318
0.633633
0.694454
0.70181
0.72256
0.761772
0.813075
0.869544
0.922722
0.959688
0.980224
0.987368
0.976444
1.27816
1.24768
1.2164
1.1861
1.1595
1.13733
1.1198
1.10631
1.09616
1.08939
1.0877
1.09246
1.14756
1.11595
1.08455
1.05493
1.02891
1.00692
0.989159
0.975181
0.964409
0.956309
0.951268
0.952403
1.04213
1.01472
0.986447
0.958484
0.931929
0.907199
0.88465
0.864045
0.844687
0.825618
0.807827
0.797306
0.954515
0.933613
0.909745
0.883402
0.855008
0.824894
0.793504
0.760619
0.725311
0.685961
0.644847
0.615832
1.10416
1.10698
1.09706
1.09801
1.10805
1.12869
1.15938
1.19607
1.23666
1.27316
1.30676
1.31094
0.96413
0.966211
0.953532
0.960584
0.983859
1.02065
1.06638
1.11424
1.15552
1.18249
1.19696
1.18428
0.810959
0.827205
0.82052
0.834159
0.867407
0.914167
0.967922
1.02066
1.0593
1.08109
1.08877
1.07318
0.633427
0.694186
0.701529
0.722289
0.761521
0.812849
0.869342
0.922543
0.959532
0.98009
0.987254
0.976348
1.2784
1.24789
1.21659
1.18628
1.15966
1.13747
1.11993
1.10642
1.09625
1.08945
1.08772
1.09243
1.14767
1.11604
1.08463
1.055
1.02897
1.00697
0.989194
0.9752
0.964408
0.956275
0.95118
0.952263
1.04213
1.01471
0.986437
0.958471
0.931913
0.907174
0.884614
0.863995
0.844616
0.825515
0.807671
0.797078
0.954421
0.933524
0.909662
0.883325
0.854932
0.824813
0.793414
0.760517
0.72519
0.685811
0.644654
0.615572
1.10407
1.10683
1.09681
1.0977
1.10766
1.1282
1.15881
1.1954
1.23589
1.27229
1.30582
1.30999
0.963919
0.965928
0.953153
0.960144
0.983353
1.02008
1.06574
1.11353
1.15474
1.18164
1.19609
1.18342
0.810658
0.826837
0.820074
0.833666
0.866871
0.913589
0.967302
1.01999
1.05858
1.08034
1.08801
1.07246
0.633076
0.693773
0.701067
0.721798
0.761004
0.812307
0.868774
0.921946
0.958907
0.979447
0.986614
0.975761
0.87726
0.86364
0.844739
0.820096
0.789419
0.752573
0.709667
0.659945
0.600543
0.523187
0.40254
0.23559
0.806613
0.800072
0.78626
0.763639
0.731128
0.687822
0.633186
0.565898
0.482083
0.372145
0.20823
0.0669023
0.738924
0.738885
0.730152
0.71015
0.677085
0.629288
0.565756
0.485603
0.387305
0.270412
0.138797
0.0503436
0.673291
0.678359
0.674562
0.65782
0.625869
0.576556
0.50886
0.423424
0.323123
0.217526
0.122668
0.0495716
0.609276
0.618261
0.618762
0.605768
0.576546
0.528795
0.461784
0.377976
0.283977
0.193167
0.119459
0.0496129
0.546818
0.558652
0.562596
0.553543
0.528268
0.484592
0.422011
0.344323
0.25991
0.181502
0.118428
0.0491451
0.485714
0.499483
0.506134
0.50077
0.480097
0.442196
0.386352
0.316988
0.242624
0.173824
0.116517
0.0466456
0.425655
0.4405
0.449101
0.44681
0.430845
0.399702
0.351697
0.291368
0.226493
0.165418
0.111571
0.0426979
0.365677
0.380739
0.39042
0.390507
0.37879
0.35444
0.315083
0.263721
0.20761
0.153217
0.101819
0.0369817
0.30307
0.317252
0.327097
0.328843
0.320631
0.302356
0.272326
0.230108
0.182266
0.134226
0.0853337
0.0295477
0.228672
0.240604
0.249449
0.252065
0.246863
0.233686
0.213212
0.183293
0.143791
0.103002
0.058594
0.0204811
0.101708
0.108299
0.11393
0.117107
0.116493
0.112346
0.104732
0.0931912
0.0773296
0.0565573
0.0340784
0.0129798
0.383106
0.563311
0.594026
0.622585
0.664846
0.717165
0.773124
0.825001
0.861635
0.883074
0.892823
0.889454
0.264284
0.452017
0.49903
0.534146
0.577383
0.628553
0.68222
0.731925
0.768768
0.792403
0.805747
0.809655
0.208191
0.367141
0.417806
0.455928
0.498518
0.5472
0.59768
0.644592
0.681546
0.707658
0.724674
0.734655
0.169549
0.300626
0.349292
0.387344
0.428041
0.473386
0.520177
0.563984
0.600441
0.628278
0.648845
0.663501
0.139653
0.246846
0.291355
0.327564
0.365525
0.407028
0.449866
0.490435
0.525604
0.55427
0.577272
0.595568
0.114992
0.201858
0.241876
0.275511
0.310277
0.347682
0.386453
0.423702
0.45699
0.48551
0.509766
0.530301
0.0940201
0.162849
0.199022
0.229979
0.261375
0.294592
0.329281
0.363152
0.394185
0.421704
0.446092
0.467603
0.0764788
0.127907
0.161246
0.189704
0.217686
0.246705
0.277341
0.307817
0.336312
0.362196
0.385739
0.407097
0.060927
0.0965606
0.127285
0.153331
0.177784
0.202554
0.22915
0.256207
0.281925
0.305628
0.327517
0.347714
0.0464335
0.068599
0.0960096
0.118994
0.139381
0.159615
0.182026
0.205562
0.228225
0.249188
0.268583
0.286669
0.0329901
0.0439612
0.065415
0.0827793
0.0974816
0.11209
0.129589
0.148984
0.167837
0.184999
0.200618
0.215253
0.0146878
0.0184954
0.0280879
0.0361171
0.0421771
0.0478715
0.0551022
0.0636037
0.0720534
0.0800269
0.0875466
0.0947938
0.877366
0.863725
0.844838
0.820221
0.789576
0.752763
0.709888
0.660197
0.60082
0.52348
0.402813
0.235749
0.80671
0.800135
0.786329
0.763731
0.731252
0.687981
0.633377
0.566116
0.482316
0.372366
0.20837
0.0669257
0.739018
0.738933
0.730195
0.71021
0.677174
0.629409
0.565904
0.48577
0.38747
0.270542
0.138846
0.050347
0.673383
0.678397
0.674585
0.657853
0.625924
0.576637
0.508962
0.423535
0.323222
0.217585
0.122683
0.0495716
0.609365
0.618294
0.618774
0.60578
0.576573
0.528841
0.461845
0.378039
0.284025
0.193187
0.119462
0.0496137
0.546909
0.558686
0.562604
0.553541
0.528274
0.484609
0.422039
0.344351
0.259926
0.181503
0.118425
0.0491445
0.485809
0.499521
0.506143
0.500761
0.480089
0.442194
0.386357
0.316993
0.242622
0.173816
0.116512
0.0466456
0.425754
0.440544
0.449115
0.446801
0.430831
0.399689
0.351687
0.291359
0.226482
0.165407
0.111567
0.0426993
0.365779
0.380788
0.390444
0.390503
0.378776
0.354423
0.315067
0.263707
0.207595
0.153206
0.101817
0.0369842
0.303164
0.317308
0.327131
0.328848
0.320623
0.302342
0.27231
0.230094
0.182254
0.134219
0.0853347
0.029552
0.22875
0.24066
0.24949
0.252078
0.246862
0.233678
0.213202
0.183284
0.143783
0.102999
0.0585978
0.020486
0.101746
0.10833
0.113952
0.117114
0.116494
0.112343
0.104728
0.0931881
0.0773279
0.0565581
0.0340824
0.0129833
0.383479
0.563914
0.594674
0.62324
0.665496
0.717807
0.773759
0.825626
0.862248
0.883673
0.893399
0.889995
0.264614
0.452602
0.499675
0.534804
0.578035
0.629196
0.682854
0.732551
0.769379
0.792993
0.806314
0.810188
0.208491
0.367692
0.418428
0.456569
0.499156
0.547828
0.598299
0.645203
0.68214
0.708229
0.725217
0.735165
0.169818
0.301134
0.349876
0.387954
0.428651
0.473987
0.520769
0.564566
0.601007
0.628821
0.649359
0.663978
0.139892
0.247306
0.291893
0.328132
0.366097
0.407592
0.45042
0.490979
0.526134
0.554778
0.577751
0.596011
0.115202
0.202267
0.242362
0.276031
0.310803
0.348201
0.386963
0.424201
0.457476
0.485978
0.510206
0.530707
0.0941995
0.163204
0.199453
0.230445
0.26185
0.295062
0.329741
0.363603
0.394625
0.422127
0.446492
0.467971
0.0766307
0.128206
0.161619
0.190114
0.218106
0.247121
0.277749
0.308217
0.336703
0.362573
0.386096
0.407427
0.0610525
0.0968016
0.127599
0.153681
0.178146
0.202912
0.229502
0.256553
0.282264
0.305957
0.32783
0.348005
0.0465325
0.0687816
0.0962619
0.11928
0.139678
0.159909
0.182316
0.20585
0.22851
0.249465
0.268848
0.286919
0.0330625
0.0440844
0.065599
0.0829888
0.097699
0.112305
0.129802
0.1492
0.168053
0.185211
0.200823
0.215449
0.0147168
0.018541
0.0281645
0.0362097
0.0422735
0.0479656
0.0551951
0.0636975
0.072148
0.0801201
0.0876393
0.0948818
0.877861
0.864164
0.845209
0.820522
0.789804
0.75292
0.70998
0.66023
0.600805
0.523429
0.40276
0.235728
0.807197
0.800562
0.786688
0.764021
0.731471
0.688133
0.63347
0.566161
0.48233
0.372371
0.208408
0.0669446
0.739494
0.739347
0.730538
0.710487
0.677385
0.62956
0.566006
0.485838
0.387523
0.2706
0.138909
0.0503654
0.673822
0.678787
0.674911
0.658116
0.626129
0.576789
0.509075
0.423624
0.323302
0.217662
0.122739
0.0495884
0.609767
0.618655
0.619081
0.606028
0.576769
0.528991
0.461964
0.378139
0.284115
0.193263
0.119507
0.0496282
0.547276
0.559016
0.562887
0.553772
0.528459
0.484755
0.422157
0.344453
0.260013
0.181569
0.118462
0.049154
0.486141
0.499819
0.506401
0.500972
0.480261
0.442331
0.386468
0.317089
0.242698
0.173868
0.11654
0.0466518
0.426051
0.440808
0.449345
0.44699
0.430988
0.399815
0.351788
0.291445
0.226546
0.165445
0.111585
0.0427007
0.366043
0.381015
0.390646
0.390665
0.378915
0.354536
0.315152
0.263781
0.207646
0.15323
0.101827
0.0369815
0.303389
0.3175
0.327298
0.328982
0.320738
0.302438
0.272381
0.230153
0.182291
0.134232
0.085336
0.0295474
0.228925
0.240806
0.249615
0.252177
0.246948
0.233751
0.213258
0.183324
0.143806
0.103003
0.0585949
0.0204794
0.101822
0.108396
0.114008
0.117158
0.116532
0.112373
0.10475
0.0932033
0.0773334
0.0565528
0.0340742
0.0129769
0.383314
0.56361
0.594341
0.62291
0.665181
0.717513
0.773486
0.825373
0.862015
0.883458
0.893205
0.889821
0.264454
0.452278
0.499306
0.534427
0.57767
0.628847
0.682524
0.732237
0.769084
0.792719
0.806061
0.809957
0.208334
0.36736
0.418039
0.456164
0.498755
0.547441
0.597928
0.644846
0.681802
0.707913
0.724926
0.734899
0.169669
0.300807
0.349483
0.387536
0.428233
0.473579
0.520373
0.564184
0.600643
0.628479
0.649044
0.663692
0.139754
0.246993
0.291509
0.327718
0.365677
0.407178
0.450016
0.490588
0.525759
0.554425
0.577425
0.595716
0.115076
0.201977
0.241999
0.275632
0.310395
0.347796
0.386565
0.423814
0.457104
0.485625
0.50988
0.530412
0.0940896
0.162943
0.199119
0.230073
0.261465
0.294677
0.329362
0.363231
0.394266
0.421785
0.446174
0.467684
0.076536
0.12798
0.161321
0.189777
0.217755
0.246767
0.277398
0.307871
0.336367
0.362251
0.385795
0.407154
0.0609738
0.0966151
0.127341
0.153387
0.177837
0.202599
0.229188
0.256242
0.28196
0.305664
0.327554
0.347752
0.0464705
0.0686379
0.0960492
0.119035
0.139421
0.159648
0.182052
0.205584
0.228246
0.24921
0.268606
0.286694
0.033018
0.0439881
0.0654402
0.0828086
0.0975103
0.112113
0.129604
0.148996
0.167848
0.185012
0.200632
0.215268
0.0147002
0.018508
0.0280982
0.0361311
0.0421917
0.0478837
0.0551101
0.0636099
0.0720591
0.0800336
0.0875539
0.0948017
0.877701
0.864017
0.845077
0.820399
0.789685
0.752798
0.70985
0.66009
0.600652
0.52326
0.402583
0.23559
0.806988
0.800375
0.78652
0.763868
0.731324
0.687984
0.633315
0.565999
0.482162
0.372206
0.208276
0.0669074
0.739253
0.739132
0.730349
0.710315
0.677222
0.629398
0.565841
0.485669
0.387358
0.270454
0.138822
0.0503457
0.673564
0.678556
0.674709
0.657935
0.625959
0.576624
0.50891
0.423461
0.323153
0.217547
0.122678
0.0495722
0.609504
0.618419
0.618873
0.605845
0.5766
0.528831
0.461807
0.377991
0.283987
0.193173
0.119461
0.0496138
0.547014
0.558782
0.562682
0.553592
0.528296
0.484604
0.422014
0.344322
0.259908
0.181499
0.118425
0.0491446
0.485887
0.499593
0.506202
0.500801
0.480107
0.442192
0.386341
0.316976
0.242612
0.173815
0.116512
0.0466447
0.425809
0.440596
0.449159
0.44683
0.430845
0.399689
0.351678
0.291349
0.226476
0.165406
0.111566
0.0426975
0.365817
0.380825
0.390476
0.390523
0.378787
0.354423
0.31506
0.263699
0.207591
0.153205
0.101813
0.0369815
0.30319
0.317333
0.327153
0.328862
0.320629
0.302342
0.272304
0.230087
0.182248
0.134215
0.0853299
0.0295485
0.228766
0.240676
0.249504
0.252086
0.246864
0.233677
0.213198
0.183276
0.143774
0.102993
0.0585924
0.0204824
0.101754
0.108338
0.11396
0.117119
0.116497
0.112343
0.104726
0.0931845
0.0773226
0.0565518
0.0340771
0.0129803
0.383024
0.5632
0.593901
0.622451
0.664708
0.717025
0.772982
0.824852
0.86148
0.882918
0.892678
0.889351
0.264209
0.451907
0.498908
0.534017
0.57725
0.62842
0.682087
0.731788
0.768628
0.792269
0.805631
0.809579
0.208125
0.36704
0.417694
0.455808
0.498393
0.547074
0.597554
0.644462
0.681413
0.707533
0.72457
0.73459
0.16949
0.300537
0.349192
0.387235
0.427926
0.473268
0.520056
0.563857
0.60031
0.62815
0.64874
0.663427
0.139602
0.246771
0.291269
0.327468
0.36542
0.406917
0.44975
0.490312
0.525473
0.554138
0.577154
0.595474
0.11495
0.201797
0.241805
0.275429
0.310184
0.347581
0.386344
0.423583
0.456861
0.485373
0.509632
0.530186
0.0939856
0.162802
0.198966
0.229911
0.261294
0.294502
0.329181
0.36304
0.394061
0.421566
0.445947
0.467471
0.0764511
0.127874
0.161205
0.18965
0.217618
0.246626
0.277253
0.307717
0.336197
0.362063
0.385591
0.406954
0.060906
0.0965402
0.127258
0.15329
0.177729
0.202488
0.229075
0.256122
0.281824
0.305508
0.327376
0.347571
0.0464189
0.0685883
0.0959939
0.118964
0.139339
0.159563
0.181969
0.205495
0.228144
0.249087
0.26846
0.28654
0.0329809
0.0439566
0.0654086
0.0827602
0.097452
0.112055
0.129552
0.148942
0.167783
0.184926
0.200527
0.215152
0.0146834
0.0184929
0.0280857
0.0361085
0.0421634
0.0478557
0.055087
0.0635871
0.0720312
0.0799967
0.0875059
0.0947409
)
;

boundaryField
{
    rotor
    {
        type            kqRWallFunction;
        value           nonuniform List<scalar> 
192
(
0.0390369
0.0504016
0.0575822
0.0564066
0.0502165
0.0506827
0.0682941
0.189206
0.300032
0.347553
0.374211
0.392192
0.400943
0.403686
0.401262
0.395466
0.385317
0.368325
0.345022
0.314036
0.274183
0.22712
0.173103
0.1392
0.0389083
0.050239
0.0574918
0.0563401
0.0501822
0.0506233
0.0680531
0.188446
0.299552
0.347192
0.37385
0.391872
0.400637
0.4034
0.400983
0.395238
0.385116
0.368156
0.344882
0.313927
0.274102
0.227065
0.173065
0.13916
0.0389048
0.0502302
0.0574344
0.0562628
0.0501019
0.0506111
0.0683987
0.189758
0.300361
0.347796
0.374472
0.39243
0.401181
0.403899
0.401468
0.395648
0.385481
0.368462
0.345147
0.314131
0.274267
0.22717
0.173135
0.13922
0.0389124
0.0502443
0.0574979
0.0563462
0.0501892
0.0506357
0.0680984
0.188612
0.299681
0.347301
0.373959
0.391975
0.400738
0.403496
0.401078
0.395328
0.385201
0.368235
0.344953
0.313989
0.274149
0.227107
0.1731
0.139197
0.0390369
0.0757947
0.100555
0.1325
0.149611
0.16014
0.159625
0.159435
0.163107
0.17457
0.204202
0.597147
0.139197
0.316616
0.449374
0.556437
0.646027
0.733302
0.815329
0.909801
1.01495
1.12514
1.25356
1.43755
0.0389083
0.0757783
0.100443
0.132381
0.149488
0.160033
0.159546
0.159384
0.163085
0.174568
0.204222
0.597217
0.1392
0.316628
0.449405
0.55649
0.646097
0.733386
0.815426
0.909909
1.01506
1.12527
1.2537
1.43771
0.0389048
0.075793
0.100552
0.132559
0.149719
0.160251
0.159732
0.159523
0.163173
0.174621
0.204248
0.59725
0.13916
0.316555
0.449318
0.556382
0.64598
0.733262
0.815297
0.909778
1.01494
1.12515
1.2536
1.43764
0.0389124
0.075789
0.100459
0.132391
0.149495
0.160036
0.159544
0.159372
0.163074
0.174563
0.204233
0.597309
0.13922
0.31668
0.449493
0.55662
0.646261
0.733585
0.815657
0.910176
1.01537
1.12562
1.25408
1.43815
)
;
    }
    stator
    {
        type            kqRWallFunction;
        value           nonuniform List<scalar> 
192
(
0.101708
0.108299
0.11393
0.117107
0.116493
0.112346
0.104732
0.0931912
0.0773296
0.0565573
0.0340784
0.0129798
0.0146878
0.0184954
0.0280879
0.0361171
0.0421771
0.0478715
0.0551022
0.0636037
0.0720534
0.0800269
0.0875466
0.0947938
0.101746
0.10833
0.113952
0.117114
0.116494
0.112343
0.104728
0.0931881
0.0773279
0.0565581
0.0340824
0.0129833
0.0147168
0.018541
0.0281645
0.0362097
0.0422735
0.0479656
0.0551951
0.0636975
0.072148
0.0801201
0.0876393
0.0948818
0.101822
0.108396
0.114008
0.117158
0.116532
0.112373
0.10475
0.0932033
0.0773334
0.0565528
0.0340742
0.0129769
0.0147002
0.018508
0.0280982
0.0361311
0.0421917
0.0478837
0.0551101
0.0636099
0.0720591
0.0800336
0.0875539
0.0948017
0.101754
0.108338
0.11396
0.117119
0.116497
0.112343
0.104726
0.0931845
0.0773226
0.0565518