/*--------------------------------*- C++ -*----------------------------------*\
| =========                 |                                                 |
| \\      /  F ield         | OpenFOAM: The Open Source CFD Toolbox           |
|  \\    /   O peration     | Version:  4.0                                   |
|   \\  /    A nd           | Web:      www.OpenFOAM.org                      |
|    \\/     M anipulation  |                                                 |
\*---------------------------------------------------------------------------*/
FoamFile
{
    version     2.0;
    format      ascii;
    class       volScalarField;
    location    "300";
    object      nut;
}
// * * * * * * * * * * * * * * * * * * * * * * * * * * * * * * * * * * * * * //

dimensions      [0 2 -1 0 0 0 0];

internalField   nonuniform List<scalar> 
3072
(
3.07906e-05
6.40762e-05
6.85736e-05
6.79234e-05
6.40999e-05
6.4154e-05
7.33612e-05
0.000121596
0.000155254
0.000167648
0.000174037
0.000178323
4.788e-05
0.000168995
0.000192949
0.000150722
8.42902e-05
0.000134437
0.000165622
0.000232909
0.000333229
0.000454751
0.000608027
0.00076775
6.08259e-05
0.000265453
0.000284885
0.000248165
0.00022474
0.000299954
0.000431948
0.000611004
0.000843946
0.00108986
0.00133163
0.00154628
7.6502e-05
0.000347664
0.000356903
0.000341875
0.000415058
0.000590243
0.000816794
0.0010771
0.00136893
0.00164705
0.00189903
0.00211524
8.83688e-05
0.000434791
0.000500175
0.000529997
0.00068033
0.000909985
0.0011838
0.00148157
0.00178201
0.00206066
0.00230767
0.00251923
9.88376e-05
0.000516096
0.000635617
0.000735874
0.000932012
0.00119033
0.00147837
0.00177932
0.0020718
0.00234147
0.00258099
0.00278551
0.000106056
0.000578337
0.000761399
0.000918649
0.00114954
0.00141944
0.00170429
0.00198952
0.00226275
0.00251418
0.00273927
0.00293367
0.000113449
0.000657058
0.000893743
0.0011085
0.00137387
0.00164581
0.00191357
0.00217017
0.00241094
0.00263156
0.00282916
0.00300111
0.000122278
0.000722158
0.00106526
0.00135356
0.00162593
0.00187415
0.00210069
0.00230919
0.00250179
0.00267869
0.00284003
0.00298285
0.000134232
0.000803285
0.00123191
0.0015575
0.00180932
0.00201597
0.00219311
0.00235253
0.00249997
0.00263793
0.00276729
0.00288669
0.000153522
0.000763631
0.00132429
0.00165337
0.00187753
0.00205272
0.00220258
0.0023328
0.00245071
0.00256058
0.00266453
0.00276264
0.000276821
0.00074893
0.001397
0.00175832
0.00195166
0.00211571
0.00224202
0.00234498
0.00243395
0.00251447
0.00259011
0.0026622
0.000180335
0.000181014
0.000180457
0.000179207
0.000176938
0.000173032
0.000167496
0.000159845
0.000149392
0.000135994
0.000118717
5.81147e-05
0.000912653
0.00103501
0.00110744
0.00111953
0.00107963
0.00100512
0.000892972
0.000744399
0.000571875
0.000344894
0.000170351
9.79878e-05
0.00171492
0.00182337
0.00186574
0.00185647
0.00179248
0.00167274
0.00149994
0.00127356
0.000992695
0.000661918
0.000288006
0.000129049
0.0022849
0.00240076
0.0024607
0.00246695
0.00241687
0.00230389
0.00211917
0.001854
0.00150296
0.0010587
0.000515359
0.000157262
0.00269037
0.00281429
0.00289041
0.00291892
0.0028936
0.00280343
0.00263793
0.00237717
0.00198681
0.00144658
0.000752491
0.000184179
0.00295345
0.00308245
0.00317089
0.00321742
0.00321909
0.00316789
0.00304679
0.00282552
0.00244975
0.00186083
0.00104419
0.00021191
0.00309555
0.00322408
0.00331922
0.00338078
0.00341014
0.00340324
0.00334245
0.00318527
0.00286175
0.00226584
0.00134792
0.000239991
0.00314644
0.00326442
0.00335578
0.00342356
0.00347255
0.0035038
0.00350591
0.00343704
0.00320172
0.00264143
0.00164197
0.000270985
0.00310665
0.00321118
0.00329751
0.00336897
0.00343062
0.00348937
0.00354458
0.00356767
0.0034551
0.00298353
0.00190175
0.000304692
0.00299519
0.00309203
0.00317914
0.00325628
0.00332053
0.00339081
0.0034797
0.00357263
0.00359325
0.0032905
0.00220158
0.000340276
0.00285477
0.00294125
0.00302694
0.00311399
0.00318848
0.00325344
0.00334974
0.00348538
0.00362019
0.00351356
0.00255732
0.000379752
0.00273235
0.00280248
0.00287488
0.00295386
0.00304734
0.00312025
0.00320719
0.00335567
0.00355221
0.00365021
0.0029542
0.000428774
3.07483e-05
6.3979e-05
6.85256e-05
6.78899e-05
6.40854e-05
6.41251e-05
7.32421e-05
0.000121338
0.000155126
0.000167562
0.000173956
0.000178255
4.78786e-05
0.000168983
0.000193039
0.000151076
8.43492e-05
0.000134121
0.0001653
0.000232454
0.000332686
0.000453946
0.000607194
0.000766849
6.07951e-05
0.000265169
0.000284912
0.000248195
0.000224526
0.000299299
0.000431118
0.000609867
0.000842586
0.0010884
0.00133011
0.00154474
7.64689e-05
0.00034756
0.000356633
0.000341139
0.000414258
0.000589183
0.000815511
0.00107556
0.00136724
0.00164532
0.00189723
0.00211342
8.83368e-05
0.000434546
0.000499747
0.000529476
0.000679302
0.000908803
0.0011823
0.00147994
0.00178027
0.00205887
0.00230583
0.00251736
9.88062e-05
0.000515887
0.000635154
0.000735186
0.000931026
0.00118922
0.00147692
0.00177772
0.00207012
0.00233973
0.00257922
0.00278373
0.000106031
0.000578148
0.000760996
0.000917966
0.00114875
0.00141851
0.00170313
0.00198821
0.00226132
0.00251266
0.00273763
0.002932
0.000113434
0.000656965
0.000893435
0.00110813
0.00137333
0.00164509
0.00191269
0.00216912
0.00240975
0.00263027
0.0028278
0.00299969
0.000122276
0.000722177
0.00106524
0.00135345
0.00162563
0.00187364
0.00210003
0.00230837
0.00250082
0.00267765
0.00283891
0.00298165
0.000134239
0.000803465
0.00123204
0.00155748
0.00180917
0.00201563
0.00219263
0.00235192
0.00249924
0.00263711
0.00276639
0.00288573
0.000153538
0.000763772
0.00132442
0.00165347
0.00187759
0.00205271
0.00220246
0.00233256
0.00245035
0.00256011
0.00266397
0.00276201
0.000276828
0.000749053
0.0013972
0.00175862
0.00195196
0.00211598
0.00224223
0.0023451
0.00243397
0.00251439
0.00258993
0.00266193
0.000180266
0.000180945
0.000180402
0.000179156
0.000176893
0.000172994
0.000167464
0.000159819
0.000149371
0.000135979
0.000118705
5.8107e-05
0.000911672
0.00103385
0.00110638
0.00111873
0.00107904
0.0010046
0.000892558
0.000744101
0.000571672
0.000344792
0.000170318
9.79774e-05
0.00171343
0.00182189
0.00186428
0.0018552
0.00179142
0.00167186
0.00149924
0.00127302
0.000992332
0.000661715
0.000287939
0.000129038
0.00228313
0.00239902
0.00245907
0.00246543
0.00241549
0.00230275
0.00211823
0.00185324
0.00150242
0.00105839
0.000515239
0.000157248
0.00268853
0.00281251
0.00288867
0.00291731
0.00289206
0.00280203
0.00263676
0.00237624
0.00198611
0.00144616
0.000752322
0.000184163
0.00295168
0.00308069
0.00316917
0.00321577
0.00321752
0.00316645
0.00304551
0.00282446
0.00244897
0.00186032
0.00104397
0.000211893
0.00309388
0.00322243
0.00331759
0.00337919
0.00340862
0.00340181
0.00334116
0.00318417
0.00286089
0.00226526
0.00134768
0.000239973
0.00314498
0.00326294
0.0033543
0.00342211
0.00347114
0.00350247
0.00350466
0.00343595
0.00320085
0.00264084
0.00164171
0.000270967
0.0031054
0.0032099
0.00329621
0.00336769
0.00342938
0.00348817
0.00354342
0.00356664
0.00345427
0.00298298
0.00190152
0.000304675
0.00299418
0.00309099
0.00317809
0.00325522
0.00331949
0.00338981
0.00347875
0.0035718
0.00359256
0.00329001
0.0022014
0.000340259
0.00285407
0.00294051
0.00302617
0.00311322
0.00318772
0.00325269
0.00334905
0.0034847
0.00361961
0.00351321
0.00255717
0.000379739
0.002732
0.00280207
0.00287443
0.0029534
0.00304691
0.00311981
0.00320674
0.00335523
0.00355187
0.00364997
0.00295413
0.000428764
3.07454e-05
6.3971e-05
6.84869e-05
6.78381e-05
6.40269e-05
6.4106e-05
7.33993e-05
0.000121765
0.000155335
0.000167703
0.000174094
0.000178374
4.78791e-05
0.000168972
0.00019276
0.00015027
8.41017e-05
0.000134573
0.000165885
0.000233278
0.00033367
0.000455429
0.000608743
0.000768543
6.08212e-05
0.00026548
0.000284692
0.000247915
0.000224715
0.000300561
0.000432649
0.000611974
0.000845112
0.00109113
0.00133298
0.00154766
7.65156e-05
0.000347683
0.00035702
0.000342129
0.000415748
0.000591225
0.000817928
0.00107847
0.00137046
0.00164864
0.00190071
0.00211697
8.83981e-05
0.000435045
0.000500596
0.000530783
0.000681317
0.000911082
0.00118521
0.00148314
0.0017837
0.00206243
0.00230952
0.00252114
9.88709e-05
0.000516437
0.000636262
0.000736831
0.000933102
0.00119152
0.00147988
0.00178097
0.00207357
0.00234332
0.00258291
0.00278748
0.000106091
0.000578708
0.000762134
0.000919671
0.00115067
0.00142068
0.00170571
0.00199108
0.00226442
0.00251596
0.00274119
0.00293567
0.000113481
0.000657384
0.000894442
0.00110944
0.00137492
0.00164699
0.00191487
0.00217159
0.00241249
0.00263322
0.00283093
0.00300299
0.000122305
0.000722423
0.00106579
0.00135422
0.00162674
0.0018751
0.00210177
0.00231041
0.00250315
0.00268017
0.00284165
0.00298461
0.000134255
0.00080341
0.00123219
0.0015579
0.00180988
0.00201668
0.00219395
0.00235351
0.0025011
0.0026392
0.00276871
0.00288825
0.000153544
0.000763728
0.00132449
0.00165363
0.00187794
0.00205323
0.00220318
0.00233351
0.00245155
0.00256156
0.00266566
0.00276393
0.000276841
0.000749137
0.00139724
0.00175854
0.00195205
0.00211616
0.00224251
0.00234554
0.0024346
0.00251523
0.00259099
0.00266322
0.000180386
0.000181059
0.000180501
0.000179247
0.000176974
0.000173064
0.000167526
0.000159869
0.000149414
0.000136009
0.000118728
5.81192e-05
0.000913444
0.00103582
0.00110818
0.00112028
0.00108025
0.0010057
0.000893471
0.000744771
0.000572125
0.000345025
0.00017039
9.79957e-05
0.00171629
0.00182474
0.00186709
0.00185769
0.00179357
0.00167369
0.00150074
0.00127419
0.000993144
0.00066218
0.000288106
0.000129062
0.00228663
0.00240248
0.00246234
0.00246851
0.0024183
0.00230515
0.00212025
0.0018549
0.00150364
0.00105912
0.000515523
0.00015728
0.00269229
0.0028162
0.00289229
0.00292072
0.00289533
0.00280504
0.00263934
0.00237834
0.00198771
0.00144716
0.000752735
0.000184202
0.00295546
0.00308449
0.00317293
0.00321942
0.00322103
0.00316973
0.00304847
0.00282697
0.00245085
0.00186157
0.00104451
0.000211939
0.0030976
0.00322616
0.00332133
0.0033829
0.00341223
0.00340527
0.00334436
0.00318696
0.00286311
0.00226675
0.00134833
0.000240024
0.00314842
0.00326649
0.00335792
0.00342573
0.00347473
0.00350597
0.00350802
0.00343897
0.00320332
0.00264252
0.00164245
0.000271024
0.00310854
0.00321317
0.00329959
0.00337111
0.0034328
0.00349158
0.00354684
0.00356983
0.00345695
0.00298482
0.0019023
0.000304737
0.0029969
0.00309387
0.0031811
0.0032583
0.00332259
0.00339296
0.00348195
0.0035749
0.00359533
0.00329201
0.00220221
0.000340327
0.00285621
0.00294284
0.00302872
0.00311586
0.00319033
0.00325538
0.00335186
0.00348773
0.00362248
0.00351533
0.00255803
0.000379808
0.00273352
0.00280379
0.00287635
0.0029555
0.00304901
0.00312194
0.00320914
0.00335794
0.00355459
0.00365226
0.00295508
0.000428837
3.07495e-05
6.39822e-05
6.85292e-05
6.78932e-05
6.40891e-05
6.4132e-05
7.32646e-05
0.000121394
0.00015516
0.000167588
0.000173982
0.000178278
4.78819e-05
0.000168972
0.000193044
0.000151071
8.43531e-05
0.000134168
0.000165339
0.000232519
0.000332765
0.000454069
0.000607322
0.000766998
6.08003e-05
0.000265147
0.000284935
0.000248231
0.000224556
0.000299296
0.000431144
0.000609945
0.00084271
0.00108854
0.00133028
0.00154492
7.64719e-05
0.000347546
0.000356593
0.000341085
0.000414157
0.000589077
0.000815481
0.0010756
0.00136732
0.00164542
0.00189737
0.00211357
8.83403e-05
0.000434482
0.000499586
0.000529238
0.000679085
0.000908652
0.00118223
0.00147991
0.00178028
0.0020589
0.00230589
0.00251743
9.8807e-05
0.000515773
0.000634907
0.000734865
0.000930712
0.00118895
0.00147674
0.00177759
0.00207003
0.00233966
0.00257917
0.00278369
0.00010603
0.000577981
0.000760646
0.000917533
0.00114828
0.00141808
0.00170276
0.0019879
0.00226106
0.00251245
0.00273748
0.00293187
0.000113429
0.000656789
0.000893042
0.00110754
0.00137273
0.00164454
0.00191219
0.00216869
0.0024094
0.00262997
0.00282755
0.00299949
0.000122271
0.00072201
0.00106483
0.00135295
0.00162515
0.0018732
0.00209963
0.00230802
0.00250052
0.0026774
0.00283869
0.00298147
0.000134235
0.000803365
0.00123186
0.00155735
0.00180905
0.00201552
0.00219252
0.0023518
0.00249913
0.00263701
0.0027663
0.00288563
0.00015354
0.000763853
0.00132455
0.00165361
0.00187775
0.00205281
0.00220254
0.00233262
0.00245039
0.00256014
0.00266399
0.00276202
0.000276847
0.000749259
0.0013975
0.00175891
0.00195228
0.00211628
0.00224249
0.00234533
0.00243417
0.00251456
0.00259007
0.00266205
0.000180288
0.000180966
0.000180422
0.000179176
0.000176913
0.000173012
0.000167481
0.000159834
0.000149384
0.000135991
0.000118717
5.81147e-05
0.000911818
0.001034
0.0011065
0.00111884
0.00107912
0.00100467
0.000892618
0.000744155
0.000571732
0.000344829
0.000170334
9.79864e-05
0.00171359
0.00182204
0.00186444
0.00185534
0.00179154
0.00167197
0.00149934
0.00127312
0.00099241
0.000661772
0.000287961
0.000129045
0.00228327
0.00239916
0.0024592
0.00246556
0.00241561
0.00230286
0.00211834
0.00185334
0.0015025
0.00105844
0.000515273
0.000157255
0.0026886
0.00281257
0.00288874
0.00291737
0.00289213
0.00280211
0.00263685
0.00237633
0.00198619
0.00144622
0.000752364
0.00018417
0.00295165
0.00308067
0.00316915
0.00321575
0.00321751
0.00316645
0.00304553
0.0028245
0.00244903
0.00186038
0.00104401
0.000211899
0.00309377
0.00322232
0.00331749
0.00337911
0.00340855
0.00340175
0.00334112
0.00318415
0.00286091
0.0022653
0.00134771
0.000239977
0.00314481
0.00326279
0.00335416
0.00342198
0.00347102
0.00350235
0.00350455
0.00343586
0.0032008
0.00264083
0.00164173
0.000270971
0.00310524
0.00320975
0.00329607
0.00336754
0.00342923
0.00348802
0.00354325
0.00356648
0.00345414
0.00298291
0.00190152
0.000304676
0.00299409
0.00309089
0.00317797
0.00325509
0.00331935
0.00338965
0.00347855
0.00357155
0.0035923
0.00328984
0.00220136
0.000340257
0.00285406
0.00294048
0.00302612
0.00311313
0.0031876
0.00325254
0.00334884
0.0034844
0.00361925
0.00351287
0.00255706
0.000379732
0.0027321
0.00280214
0.00287446
0.00295338
0.00304684
0.00311969
0.00320652
0.00335486
0.00355136
0.00364946
0.00295392
0.00042875
0.00168434
0.00175123
0.00186927
0.00200834
0.00213277
0.00225032
0.0023375
0.0024064
0.00246445
0.00251498
0.00256146
0.00260552
0.00270003
0.00251709
0.00243452
0.00241922
0.00242957
0.00245241
0.00247191
0.00249129
0.00251715
0.00254085
0.00256233
0.00258271
0.00335088
0.00314609
0.00297114
0.00284406
0.00274696
0.00268936
0.00264985
0.00262325
0.00260971
0.00259165
0.00257606
0.00257219
0.00357589
0.00340818
0.00324133
0.00308573
0.00294498
0.00282478
0.00273864
0.0026779
0.00263727
0.00260845
0.00259475
0.00259629
0.00265138
0.00270314
0.00276306
0.0028318
0.00292814
0.00301779
0.00310173
0.00324676
0.00344684
0.00370454
0.00381231
0.00177924
0.00260958
0.00264789
0.00269932
0.0027626
0.00285338
0.00294508
0.00303882
0.00317649
0.00336171
0.00360183
0.00407891
0.00302969
0.00259188
0.00263232
0.0026872
0.00275559
0.00283853
0.00293678
0.00304741
0.00317304
0.00333848
0.00351754
0.00392863
0.00361405
0.00262227
0.00267952
0.00274389
0.00282392
0.00291316
0.00302392
0.00314681
0.00327514
0.00341859
0.00354181
0.0037932
0.00375041
0.00168451
0.0017515
0.00186961
0.00200876
0.0021332
0.00225075
0.00233794
0.00240678
0.00246476
0.0025152
0.00256158
0.00260555
0.00270043
0.00251759
0.00243507
0.00241981
0.00243016
0.00245299
0.00247248
0.00249182
0.0025176
0.00254123
0.00256263
0.00258294
0.00335145
0.00314662
0.00297173
0.0028447
0.0027476
0.00268997
0.00265045
0.00262384
0.00261028
0.00259217
0.0025765
0.00257258
0.00357642
0.00340874
0.0032419
0.00308633
0.00294557
0.00282538
0.00273922
0.00267849
0.00263785
0.00260901
0.0025953
0.00259682
0.00265132
0.00270303
0.0027629
0.00283161
0.00292798
0.00301763
0.00310161
0.00324668
0.0034468
0.00370461
0.00381238
0.00177924
0.00260974
0.00264801
0.00269942
0.0027627
0.00285352
0.00294528
0.00303905
0.00317678
0.00336208
0.00360224
0.00407933
0.00302995
0.00259221
0.00263264
0.00268755
0.002756
0.002839
0.00293733
0.00304806
0.00317377
0.00333926
0.00351838
0.00392945
0.00361471
0.00262277
0.00268009
0.00274457
0.00282471
0.00291406
0.00302494
0.00314791
0.00327631
0.00341978
0.00354302
0.00379438
0.00375141
0.00168455
0.00175157
0.00186971
0.0020088
0.00213332
0.0022509
0.00233804
0.00240698
0.00246507
0.00251566
0.0025622
0.00260636
0.00270066
0.00251777
0.00243577
0.00241973
0.00243028
0.00245314
0.00247263
0.00249199
0.00251786
0.00254158
0.00256305
0.0025835
0.00335207
0.0031471
0.00297227
0.0028451
0.00274793
0.00269028
0.00265076
0.00262417
0.00261056
0.00259245
0.00257675
0.00257302
0.00357733
0.00340957
0.00324263
0.00308696
0.00294609
0.00282583
0.00273966
0.00267882
0.00263817
0.00260931
0.00259562
0.00259709
0.00265233
0.00270422
0.00276428
0.00283317
0.00292967
0.0030193
0.00310344
0.00324879
0.00344911
0.00370683
0.00381372
0.00177961
0.00261043
0.00264883
0.00270037
0.00276378
0.00285464
0.00294647
0.00304039
0.00317829
0.00336379
0.00360402
0.00408099
0.00303072
0.0025927
0.00263319
0.00268815
0.00275668
0.00283971
0.0029381
0.00304888
0.0031747
0.00334033
0.00351958
0.00393089
0.00361571
0.00262299
0.00268033
0.00274483
0.00282499
0.00291437
0.00302526
0.00314828
0.00327675
0.0034203
0.00354371
0.00379528
0.00375224
0.00168479
0.00175179
0.00187002
0.00200918
0.00213367
0.00225123
0.00233835
0.00240716
0.0024651
0.00251551
0.00256185
0.00260579
0.00270119
0.00251817
0.00243617
0.00242014
0.00243068
0.00245353
0.002473
0.00249231
0.00251807
0.00254166
0.00256299
0.00258328
0.00335278
0.00314767
0.00297274
0.00284554
0.00274833
0.00269062
0.00265108
0.00262446
0.00261081
0.00259264
0.00257684
0.00257298
0.00357797
0.00341006
0.00324304
0.00308732
0.00294639
0.00282607
0.00273987
0.00267898
0.0026383
0.00260938
0.00259563
0.00259699
0.00265154
0.0027032
0.00276301
0.00283165
0.0029279
0.00301751
0.00310133
0.0032462
0.00344612
0.00370381
0.00381183
0.00177895
0.00261003
0.00264823
0.00269956
0.00276269
0.00285346
0.00294506
0.0030386
0.0031761
0.00336114
0.00360117
0.00407827
0.00302932
0.00259249
0.00263279
0.00268754
0.00275567
0.00283878
0.00293683
0.00304728
0.00317271
0.00333798
0.00351692
0.00392791
0.00361351
0.00262266
0.00267981
0.00274407
0.00282399
0.00291328
0.00302385
0.00314655
0.0032747
0.00341805
0.00354111
0.00379246
0.00374987
0.00344251
0.00327059
0.00310478
0.00295287
0.00282178
0.00271643
0.0026415
0.00259068
0.00256133
0.00255252
0.00257243
0.0026252
0.00335264
0.00318175
0.00301786
0.00286776
0.00273798
0.00263247
0.00255196
0.00249149
0.00244872
0.00242417
0.00242809
0.00248479
0.0032895
0.00312632
0.00296488
0.00281235
0.00267476
0.00255424
0.00244903
0.00235344
0.002262
0.00217097
0.00209153
0.0020671
0.00323997
0.0030911
0.00293318
0.0027754
0.00262408
0.00247819
0.00233377
0.00218192
0.00200992
0.00179754
0.00154404
0.00132016
0.00271828
0.00286164
0.00295455
0.00305393
0.00316787
0.0032858
0.00339966
0.00350385
0.0035942
0.00366376
0.00369918
0.00363011
0.00262173
0.00289314
0.0030212
0.00313183
0.00325164
0.00337004
0.00347878
0.00356979
0.00362815
0.00364766
0.00363595
0.00353219
0.00218468
0.00277413
0.00299021
0.00311913
0.00324221
0.00335898
0.00346476
0.00354886
0.00358917
0.00359412
0.00356498
0.00345313
0.00131984
0.00246162
0.00286157
0.00304579
0.00317265
0.00328926
0.00339525
0.00347654
0.00351253
0.00351508
0.00348395
0.00338485
0.00344304
0.00327114
0.00310535
0.00295346
0.00282237
0.00271703
0.00264209
0.00259128
0.00256193
0.00255313
0.00257308
0.0026259
0.00335315
0.00318225
0.00301838
0.00286831
0.00273854
0.00263305
0.00255253
0.00249208
0.00244932
0.00242481
0.0024288
0.00248556
0.00328997
0.00312674
0.00296532
0.00281281
0.00267525
0.00255476
0.00244955
0.00235399
0.00226246
0.00217156
0.00209214
0.00206777
0.00324037
0.00309142
0.00293351
0.00277575
0.00262447
0.00247862
0.00233421
0.00218225
0.00200962
0.00179792
0.00154448
0.00132051
0.00271909
0.00286269
0.0029558
0.00305527
0.00316929
0.00328728
0.00340113
0.00350533
0.00359564
0.00366516
0.00370049
0.00363129
0.00262267
0.00289456
0.00302291
0.00313364
0.00325348
0.00337187
0.00348057
0.00357153
0.00362982
0.00364925
0.00363746
0.00353355
0.0021855
0.00277576
0.00299227
0.00312132
0.0032444
0.00336111
0.00346682
0.00355083
0.00359105
0.00359592
0.00356668
0.00345467
0.00132028
0.00246324
0.00286387
0.00304828
0.00317514
0.00329165
0.00339753
0.00347869
0.00351458
0.00351706
0.00348582
0.00338656
0.0034441
0.00327209
0.00310616
0.00295415
0.00282294
0.00271752
0.00264253
0.00259162
0.00256222
0.00255336
0.00257323
0.002626
0.00335438
0.00318334
0.00301931
0.0028691
0.00273919
0.00263359
0.00255297
0.00249241
0.00244956
0.00242494
0.0024288
0.00248552
0.00329137
0.00312797
0.00296637
0.00281373
0.002676
0.00255537
0.00245002
0.00235433
0.00226278
0.00217165
0.00209212
0.00206765
0.00324193
0.00309277
0.00293465
0.0027768
0.00262534
0.00247931
0.00233475
0.00218276
0.00201063
0.00179812
0.00154447
0.00132047
0.0027191
0.00286258
0.00295564
0.00305508
0.00316911
0.00328715
0.00340106
0.00350535
0.00359578
0.00366546
0.00370086
0.00363168
0.00262251
0.0028941
0.0030223
0.003133
0.00325284
0.00337129
0.00348008
0.00357115
0.00362957
0.00364911
0.0036374
0.00353354
0.00218527
0.00277501
0.00299125
0.00312024
0.00324331
0.0033601
0.00346591
0.00355006
0.00359041
0.00359538
0.00356623
0.00345429
0.00132016
0.00246238
0.00286251
0.00304679
0.00317362
0.00329024
0.00339625
0.00347756
0.00351357
0.00351616
0.00348502
0.00338586
0.00344439
0.00327229
0.00310636
0.00295452
0.0028231
0.00271757
0.00264254
0.00259158
0.00256212
0.00255317
0.00257289
0.00262555
0.00335432
0.00318325
0.00301922
0.00286905
0.00273909
0.00263346
0.00255281
0.00249221
0.0024493
0.0024246
0.00242832
0.00248494
0.00329099
0.0031276
0.00296604
0.00281342
0.00267571
0.00255508
0.00244973
0.00235403
0.00226246
0.00217128
0.0020917
0.00206713
0.00324127
0.00309216
0.00293409
0.0027763
0.00262488
0.00247889
0.00233436
0.00218241
0.00201032
0.00179778
0.00154419
0.00132018
0.00271844
0.0028617
0.00295442
0.00305376
0.00316763
0.00328539
0.00339913
0.00350323
0.00359351
0.00366303
0.00369851
0.00362951
0.00262176
0.00289302
0.00302089
0.00313145
0.00325116
0.00336943
0.00347809
0.00356903
0.00362738
0.0036469
0.00363526
0.00353155
0.00218461
0.00277391
0.00298979
0.00311859
0.00324156
0.00335823
0.00346395
0.00354801
0.00358832
0.0035933
0.00356421
0.00345246
0.00131974
0.00246135
0.00286108
0.00304516
0.0031719
0.00328842
0.00339435
0.0034756
0.00351159
0.00351416
0.00348309
0.00338414
0.00319457
0.00306367
0.00291373
0.00275078
0.00258564
0.00241223
0.00222481
0.00201189
0.00175166
0.00140019
0.000847575
0.000255166
0.00314213
0.00303345
0.00289678
0.00273355
0.00255978
0.00236538
0.002144
0.0018856
0.00157302
0.00117596
0.00060772
0.000140009
0.00307234
0.00299119
0.0028736
0.00271746
0.00254291
0.00233869
0.00209901
0.00181861
0.00149302
0.00112759
0.000634931
0.000125067
0.00298653
0.00292886
0.00283532
0.00269374
0.00252669
0.00232425
0.00208205
0.00180084
0.00148922
0.0011739
0.000734919
0.000128046
0.00288057
0.00284215
0.00277307
0.00265184
0.00249907
0.00230753
0.00207438
0.00180462
0.00151189
0.00120627
0.000796645
0.00013216
0.00274644
0.00272444
0.00267683
0.00257913
0.00244508
0.00227011
0.00205204
0.00179645
0.00151383
0.00119551
0.000802444
0.000135489
0.00256977
0.0025627
0.00253394
0.00245933
0.00234631
0.00219061
0.00198992
0.00174704
0.00146767
0.00113808
0.000766029
0.000135932
0.00233025
0.00233663
0.00232365
0.00226945
0.00217842
0.00204327
0.00186194
0.00163209
0.00135707
0.00103397
0.000681652
0.000133806
0.00199578
0.00201315
0.00201221
0.00197548
0.00190451
0.00179318
0.00163903
0.00142725
0.00116772
0.000871061
0.000553746
0.000128046
0.00151787
0.00153945
0.00154626
0.00152444
0.0014724
0.00139029
0.00127837
0.00110234
0.000883196
0.000640552
0.000384587
0.000117612
0.00083388
0.000849602
0.000857711
0.000849336
0.000821948
0.00077733
0.000719334
0.00062505
0.0004811
0.000335041
0.000180925
0.000100577
8.90354e-05
9.17985e-05
9.40812e-05
9.52818e-05
9.49778e-05
9.32344e-05
8.99946e-05
8.48812e-05
7.73032e-05
6.60878e-05
5.13032e-05
3.16818e-05
0.000325201
0.0020205
0.00267788
0.0029261
0.00306241
0.0031811
0.00328883
0.00337329
0.00341285
0.00341657
0.00339186
0.00331454
0.000279627
0.00179297
0.00249059
0.00277592
0.00292405
0.00304641
0.00315673
0.00324735
0.0032951
0.00330666
0.00328907
0.00323333
0.000256585
0.00161113
0.00230326
0.00260647
0.00276547
0.00289207
0.0030057
0.00310187
0.00316097
0.00318654
0.00317811
0.00313916
0.000239132
0.00144714
0.00211439
0.00242362
0.00259078
0.00272109
0.0028378
0.00293814
0.00300988
0.00304867
0.00305624
0.00303276
0.000223904
0.00129063
0.00192091
0.00222894
0.00240062
0.00253327
0.00265249
0.00275669
0.00283763
0.00289015
0.00291427
0.00290933
0.000209411
0.00113339
0.0017197
0.00202087
0.00219243
0.00232518
0.00244592
0.00255363
0.0026413
0.00270511
0.00274424
0.00275731
0.000195009
0.000964022
0.00150665
0.00179537
0.00196041
0.0020897
0.00221017
0.00232016
0.00241276
0.00248449
0.00253542
0.00256404
0.000180975
0.000776026
0.00127718
0.00154597
0.00169496
0.00181536
0.00193231
0.00204192
0.0021364
0.00221245
0.0022706
0.00231029
0.000166084
0.000588723
0.00102855
0.00126162
0.00138131
0.00148492
0.00159264
0.00169662
0.0017876
0.00186235
0.00192189
0.00196658
0.000148969
0.000412013
0.000755701
0.00091389
0.000987682
0.0010643
0.00115428
0.00124544
0.00132731
0.0013935
0.00144539
0.00148679
0.000128931
0.00024365
0.000422046
0.000473905
0.000500939
0.000540676
0.00059745
0.000658759
0.000713885
0.000756041
0.000787208
0.000813086
3.40058e-05
3.81059e-05
4.68974e-05
5.32236e-05
5.75656e-05
6.13601e-05
6.5803e-05
7.06617e-05
7.51668e-05
7.91817e-05
8.27543e-05
8.6032e-05
0.00319493
0.00306391
0.00291396
0.00275101
0.00258591
0.00241253
0.00222514
0.00201217
0.00175181
0.0014005
0.000847862
0.000255248
0.00314252
0.00303363
0.00289691
0.00273366
0.00255991
0.00236554
0.00214419
0.00188578
0.00157316
0.00117612
0.000607865
0.000140034
0.0030728
0.00299136
0.00287365
0.00271748
0.00254293
0.00233872
0.00209904
0.00181863
0.00149301
0.00112755
0.000634955
0.000125075
0.00298704
0.00292903
0.00283532
0.00269369
0.00252662
0.00232417
0.00208196
0.00180073
0.00148906
0.00117373
0.000734929
0.00012805
0.00288107
0.00284233
0.00277307
0.00265175
0.00249894
0.00230738
0.00207421
0.00180441
0.00151166
0.00120611
0.00079666
0.000132165
0.00274693
0.00272464
0.00267684
0.00257903
0.00244492
0.00226992
0.00205183
0.00179623
0.00151361
0.0011954
0.000802443
0.000135492
0.00257023
0.00256291
0.00253397
0.00245924
0.00234615
0.00219042
0.00198971
0.00174683
0.00146749
0.00113801
0.000766044
0.000135937
0.00233067
0.00233684
0.00232371
0.00226938
0.00217829
0.0020431
0.00186176
0.00163193
0.00135695
0.00103392
0.000681681
0.000133812
0.00199616
0.00201335
0.00201229
0.00197544
0.00190441
0.00179306
0.0016389
0.00142714
0.00116764
0.000871032
0.000553761
0.000128054
0.00151816
0.00153961
0.00154634
0.00152443
0.00147234
0.00139023
0.0012783
0.00110228
0.000883155
0.000640541
0.000384594
0.000117625
0.000834027
0.0008497
0.000857787
0.000849344
0.000821933
0.000777309
0.000719312
0.000625033
0.000481089
0.000335043
0.000180933
0.000100592
8.90519e-05
9.18124e-05
9.40913e-05
9.52862e-05
9.49799e-05
9.32354e-05
8.99951e-05
8.4882e-05
7.73047e-05
6.60906e-05
5.13082e-05
3.16876e-05
0.000325354
0.00202204
0.00268033
0.00292883
0.00306512
0.00318369
0.00329127
0.00337559
0.00341503
0.00341868
0.00339387
0.00331639
0.000279794
0.00179455
0.00249313
0.00277879
0.00292691
0.00304914
0.0031593
0.00324976
0.00329737
0.00330881
0.00329115
0.00323533
0.00025676
0.00161273
0.00230581
0.00260941
0.00276843
0.00289488
0.00300834
0.00310435
0.00316329
0.00318871
0.0031802
0.00314119
0.000239312
0.00144873
0.00211691
0.00242655
0.00259374
0.00272391
0.00284044
0.00294063
0.00301221
0.00305083
0.00305831
0.00303472
0.000224086
0.00129218
0.00192336
0.00223179
0.00240351
0.00253603
0.00265508
0.00275912
0.00283992
0.00289228
0.00291628
0.00291121
0.000209592
0.00113487
0.00172202
0.00202357
0.00219518
0.0023278
0.00244838
0.00255594
0.00264348
0.00270716
0.00274615
0.00275908
0.000195185
0.000965401
0.00150878
0.00179784
0.00196292
0.00209211
0.00221244
0.00232229
0.00241477
0.00248638
0.0025372
0.00256567
0.000181145
0.000777242
0.00127908
0.00154813
0.00169715
0.00181746
0.00193429
0.00204378
0.00213817
0.00221412
0.00227217
0.00231174
0.000166245
0.000589732
0.00103016
0.00126337
0.00138307
0.00148661
0.00159424
0.00169814
0.00178905
0.00186371
0.00192318
0.00196775
0.000149119
0.000412775
0.000756936
0.000915117
0.000988882
0.00106545
0.00115538
0.00124651
0.00132834
0.00139447
0.0014463
0.00148762
0.000129065
0.000244108
0.000422754
0.000474522
0.000501524
0.000541227
0.000597985
0.000659286
0.0007144
0.000756532
0.000787665
0.000813506
3.40376e-05
3.81506e-05
4.69594e-05
5.32896e-05
5.76293e-05
6.14189e-05
6.58576e-05
7.07133e-05
7.52158e-05
7.92275e-05
8.2798e-05
8.60719e-05
0.00319662
0.00306539
0.00291523
0.00275219
0.0025869
0.00241334
0.00222577
0.0020127
0.00175232
0.00140067
0.000847893
0.000255236
0.00314434
0.00303524
0.0028983
0.00273495
0.00256103
0.00236647
0.00214495
0.00188639
0.00157366
0.00117641
0.00060807
0.000140051
0.0030748
0.0029931
0.00287513
0.00271882
0.00254413
0.00233977
0.00209992
0.00181937
0.00149361
0.00112798
0.000635258
0.000125094
0.00298895
0.00293082
0.00283685
0.00269505
0.00252788
0.00232528
0.00208293
0.00180156
0.00148974
0.00117423
0.000735238
0.000128068
0.00288288
0.00284408
0.0027746
0.0026531
0.0025002
0.00230851
0.00207521
0.00180528
0.00151237
0.00120661
0.000796963
0.00013218
0.00274862
0.00272629
0.00267831
0.00258032
0.00244612
0.00227101
0.0020528
0.00179706
0.00151428
0.0011959
0.00080272
0.000135501
0.00257177
0.0025644
0.00253531
0.00246042
0.00234724
0.0021914
0.00199059
0.00174759
0.00146808
0.00113844
0.000766302
0.000135942
0.00233201
0.00233812
0.00232486
0.00227039
0.00217922
0.00204393
0.00186251
0.00163256
0.00135742
0.00103424
0.000681874
0.000133811
0.00199725
0.00201434
0.0020132
0.00197622
0.00190512
0.0017937
0.00163945
0.00142761
0.00116798
0.000871244
0.000553925
0.000128047
0.00151891
0.00154028
0.00154694
0.00152493
0.00147279
0.00139065
0.00127864
0.00110257
0.000883356
0.000640661
0.000384687
0.000117613
0.000834398
0.000850009
0.000858065