/*--------------------------------*- C++ -*----------------------------------*\
| =========                 |                                                 |
| \\      /  F ield         | OpenFOAM: The Open Source CFD Toolbox           |
|  \\    /   O peration     | Version:  4.0                                   |
|   \\  /    A nd           | Web:      www.OpenFOAM.org                      |
|    \\/     M anipulation  |                                                 |
\*---------------------------------------------------------------------------*/
FoamFile
{
    version     2.0;
    format      ascii;
    class       volScalarField;
    location    "300";
    object      p;
}
// * * * * * * * * * * * * * * * * * * * * * * * * * * * * * * * * * * * * * //

dimensions      [0 2 -2 0 0 0 0];

internalField   nonuniform List<scalar> 
3072
(
0.000805181
-0.135663
-0.261984
-0.344053
-0.365009
-0.346357
-0.304683
-0.189764
0.00581216
-0.0662283
-0.369554
-0.67281
0.66092
0.437302
0.308623
0.256549
0.301003
0.502897
0.701188
1.22739
1.93706
2.25926
2.43247
2.50391
1.39783
1.11392
1.03244
1.07668
1.27606
1.69054
2.11481
2.50744
2.87775
3.10953
3.28933
3.40469
2.37533
2.16913
2.18588
2.39669
2.77091
3.19478
3.5944
3.95428
4.25449
4.47864
4.65869
4.79508
3.42894
3.34883
3.48207
3.79527
4.19947
4.60464
4.97173
5.3002
5.56568
5.76753
5.92331
6.03741
4.48074
4.52389
4.74959
5.11721
5.53137
5.92078
6.25956
6.54042
6.76438
6.93652
7.06821
7.16535
5.50796
5.68735
5.98289
6.38309
6.79502
7.16139
7.46332
7.70222
7.88633
8.02499
8.12849
8.20373
6.54205
6.86209
7.20717
7.62022
8.01133
8.338
8.59272
8.78465
8.92612
9.02871
9.10266
9.15498
7.60537
8.0742
8.44536
8.84446
9.18904
9.4556
9.65023
9.78759
9.8825
9.94722
9.99142
10.0212
8.71713
9.30055
9.68355
10.046
10.3242
10.5117
10.6336
10.7094
10.7546
10.7807
10.7961
10.8048
9.87374
10.6026
10.9435
11.1908
11.3728
11.4673
11.511
11.5252
11.524
11.5164
11.5086
11.5015
10.8915
11.9338
12.1323
12.1801
12.2391
12.2453
12.2243
12.1926
12.1608
12.1341
12.1163
12.1039
-0.918124
-0.976564
-0.892302
-0.63759
-0.25874
0.241893
0.816398
1.41043
1.94262
2.38232
2.60552
2.43464
2.57171
2.60101
2.65313
2.72207
2.83075
2.96332
3.11902
3.26922
3.40145
3.62079
3.56758
2.85193
3.47891
3.53734
3.61331
3.70854
3.81851
3.93165
4.0355
4.096
4.0886
4.08074
3.93524
2.90622
4.9023
4.98707
5.0563
5.11056
5.14974
5.16928
5.16123
5.09141
4.93644
4.7373
4.45453
3.14204
6.1218
6.18324
6.22615
6.25083
6.25566
6.23483
6.17723
6.06708
5.8642
5.57816
5.23885
3.73265
7.23569
7.28404
7.31354
7.32463
7.31576
7.28254
7.21354
7.09688
6.90258
6.60757
6.25009
4.75485
8.25694
8.29213
8.31207
8.31777
8.30879
8.28235
8.23163
8.14527
8.00164
7.77417
7.49552
6.16489
9.19119
9.21487
9.22897
9.23562
9.2359
9.22959
9.21394
9.18337
9.1282
9.02726
8.92081
7.94841
10.0414
10.0549
10.0649
10.0751
10.0883
10.1074
10.1342
10.171
10.223
10.2884
10.4429
10.0304
10.8106
10.8149
10.8211
10.8336
10.8582
10.901
10.968
11.0703
11.2274
11.4666
11.9942
12.3372
11.4974
11.4949
11.4975
11.5096
11.5394
11.5978
11.6933
11.845
12.08
12.465
13.4046
14.6693
12.0984
12.0935
12.0943
12.1042
12.1319
12.1925
12.296
12.4659
12.7219
13.1563
14.2015
16.1804
0.00206614
-0.13476
-0.261098
-0.343007
-0.363947
-0.345126
-0.30373
-0.189059
0.00723833
-0.0632655
-0.366458
-0.669643
0.661497
0.438097
0.309336
0.257104
0.301336
0.503093
0.701855
1.22585
1.93626
2.25964
2.43312
2.50493
1.39807
1.11396
1.03218
1.07619
1.27498
1.68917
2.11396
2.50667
2.87749
3.10975
3.28975
3.40538
2.37518
2.16853
2.18482
2.3952
2.76936
3.19348
3.59346
3.95359
4.25426
4.4787
4.65892
4.79545
3.42883
3.34819
3.48095
3.79391
4.19822
4.60366
4.97104
5.29973
5.56553
5.76757
5.9235
6.0377
4.48088
4.52343
4.74876
5.11623
5.53053
5.92016
6.25915
6.54022
6.76433
6.93663
7.06839
7.16561
5.50838
5.68715
5.98235
6.38248
6.79453
7.16105
7.46315
7.70216
7.88642
8.02514
8.12871
8.20398
6.54262
6.86208
7.20691
7.61991
8.01111
8.33789
8.59272
8.78474
8.92628
9.02892
9.10291
9.15524
7.60595
8.07435
8.4453
8.84439
9.18904
9.45568
9.65037
9.7878
9.88274
9.94748
9.9917
10.0215
8.71757
9.30068
9.68356
10.0461
10.3243
10.5119
10.6339
10.7097
10.7549
10.781
10.7964
10.8051
9.87403
10.6027
10.9435
11.1909
11.373
11.4676
11.5113
11.5255
11.5243
11.5167
11.5089
11.5018
10.8916
11.9338
12.1324
12.1802
12.2393
12.2455
12.2245
12.1929
12.1611
12.1344
12.1166
12.1041
-0.915383
-0.974093
-0.890307
-0.635927
-0.257504
0.242831
0.817
1.41081
1.9428
2.38233
2.60534
2.43453
2.57275
2.60203
2.65402
2.7228
2.83131
2.96374
3.1193
3.26939
3.40152
3.62074
3.56751
2.85195
3.47969
3.53814
3.61402
3.70914
3.81901
3.93203
4.03578
4.09621
4.08874
4.08082
3.93533
2.9064
4.90268
4.98749
5.05672
5.11097
5.1501
5.16958
5.16148
5.09161
4.93661
4.73745
4.45469
3.1423
6.12213
6.18359
6.2265
6.25118
6.25597
6.23511
6.17746
6.06729
5.86438
5.57837
5.23904
3.73294
7.23596
7.28433
7.31384
7.32491
7.31604
7.28278
7.21379
7.09708
6.90281
6.60772
6.2503
4.75511
8.25721
8.29241
8.31233
8.31805
8.30903
8.28259
8.23184
8.1455
8.0018
7.77437
7.49566
6.16509
9.19146
9.21514
9.22923
9.23586
9.23615
9.2298
9.21416
9.18356
9.1284
9.02738
8.92091
7.94855
10.0417
10.0551
10.0652
10.0753
10.0885
10.1076
10.1344
10.1712
10.2231
10.2886
10.443
10.0304
10.8109
10.8152
10.8213
10.8339
10.8584
10.9012
10.9682
11.0706
11.2276
11.4668
11.9942
12.3373
11.4977
11.4952
11.4978
11.5099
11.5397
11.5981
11.6935
11.8452
12.0802
12.4651
13.4048
14.6693
12.0987
12.0938
12.0945
12.1045
12.1322
12.1927
12.2962
12.4662
12.7221
13.1566
14.2016
16.1804
0.00168971
-0.135071
-0.2613
-0.343001
-0.363611
-0.344959
-0.30282
-0.187612
0.00718577
-0.0662212
-0.369523
-0.672757
0.66129
0.438098
0.309721
0.258012
0.302917
0.505278
0.703254
1.23127
1.93992
2.26088
2.43378
2.50486
1.39828
1.11489
1.03383
1.07845
1.27848
1.69336
2.11728
2.50987
2.8797
3.1111
3.29071
3.40584
2.37581
2.17013
2.18739
2.3988
2.7733
3.19711
3.59653
3.95623
4.25608
4.48002
4.65991
4.79619
3.42948
3.34983
3.48358
3.79714
4.20141
4.60648
4.97343
5.30175
5.56699
5.7687
5.92436
6.03837
4.48121
4.52483
4.75094
5.11876
5.5329
5.92221
6.26085
6.54161
6.76544
6.9375
7.06911
7.1662
5.50835
5.68822
5.98406
6.38435
6.79623
7.1625
7.46433
7.70316
7.88719
8.0258
8.12926
8.20446
6.54242
6.86289
7.20816
7.62124
8.01229
8.33888
8.59354
8.78541
8.92683
9.02939
9.10331
9.15561
7.60576
8.07488
8.44618
8.84528
9.18981
9.45631
9.65088
9.78822
9.88309
9.9478
9.99199
10.0218
8.71751
9.30118
9.68425
10.0467
10.3248
10.5122
10.6342
10.7099
10.7551
10.7812
10.7966
10.8053
9.87411
10.6031
10.9441
11.1914
11.3733
11.4678
11.5115
11.5257
11.5245
11.5168
11.5091
11.5019
10.8918
11.9342
12.1328
12.1806
12.2396
12.2458
12.2248
12.1931
12.1613
12.1346
12.1168
12.1043
-0.917655
-0.975916
-0.891382
-0.6366
-0.257631
0.242948
0.817437
1.41133
1.94343
2.38301
2.60616
2.43527
2.57261
2.60189
2.65405
2.72304
2.83171
2.96428
3.11993
3.27007
3.40222
3.62148
3.56816
2.85256
3.47996
3.53834
3.61429
3.70951
3.81945
3.93255
4.03635
4.09681
4.08937
4.08144
3.93584
2.9069
4.90334
4.98805
5.05722
5.11144
5.15059
5.17011
5.16204
5.0922
4.9372
4.73804
4.4552
3.14279
6.1227
6.1841
6.22696
6.25162
6.25644
6.23559
6.17799
6.06782
5.86495
5.57891
5.23956
3.73347
7.23649
7.2848
7.31427
7.32534
7.31646
7.28323
7.21423
7.09758
6.9033
6.60833
6.25086
4.75573
8.25763
8.2928
8.31271
8.3184
8.3094
8.28296
8.23225
8.14591
8.00232
7.77493
7.49633
6.16584
9.19179
9.21545
9.22953
9.23617
9.23645
9.23013
9.21449
9.18394
9.12883
9.02799
8.92165
7.9494
10.0419
10.0554
10.0654
10.0756
10.0888
10.1078
10.1347
10.1715
10.2235
10.2891
10.4437
10.0314
10.8111
10.8154
10.8215
10.834
10.8586
10.9014
10.9684
11.0708
11.2279
11.4672
11.995
12.3382
11.4978
11.4953
11.4979
11.51
11.5398
11.5982
11.6936
11.8453
12.0804
12.4655
13.4053
14.6702
12.0988
12.0939
12.0947
12.1046
12.1323
12.1928
12.2963
12.4663
12.7222
13.1566
14.2021
16.1811
0.00172259
-0.135129
-0.261487
-0.343385
-0.364314
-0.345516
-0.304049
-0.189285
0.00690278
-0.0640364
-0.367468
-0.670858
0.661129
0.437681
0.30891
0.256714
0.301003
0.502846
0.701629
1.22611
1.93645
2.25959
2.43294
2.50458
1.39767
1.11348
1.03169
1.07572
1.27466
1.68898
2.11379
2.50653
2.87733
3.10949
3.28943
3.40496
2.3748
2.16806
2.18433
2.39476
2.76905
3.1933
3.59334
3.9535
4.25412
4.47852
4.6587
4.79517
3.42852
3.34781
3.48056
3.7936
4.19804
4.60357
4.97099
5.2997
5.56547
5.76747
5.92336
6.03751
4.48066
4.52313
4.74849
5.11607
5.53049
5.92019
6.2592
6.54027
6.76435
6.93661
7.06832
7.1655
5.50825
5.68693
5.98219
6.38245
6.79462
7.1612
7.46331
7.7023
7.88651
8.02519
8.1287
8.20392
6.54256
6.86194
7.20685
7.61999
8.0113
8.33813
8.59296
8.78494
8.92643
9.02901
9.10294
9.15522
7.60594
8.07428
8.44532
8.84454
9.18929
9.45596
9.65064
9.78802
9.88291
9.94759
9.99175
10.0215
8.71761
9.30067
9.68366
10.0463
10.3246
10.5121
10.6341
10.7099
10.755
10.7811
10.7964
10.8051
9.87411
10.6028
10.9437
11.1912
11.3733
11.4678
11.5115
11.5257
11.5244
11.5168
11.5089
11.5018
10.8918
11.934
12.1326
12.1805
12.2396
12.2458
12.2248
12.1931
12.1612
12.1345
12.1166
12.1041
-0.916664
-0.975398
-0.891548
-0.637077
-0.258498
0.24201
0.816389
1.4104
1.94259
2.38232
2.6055
2.4346
2.5723
2.60151
2.65348
2.72227
2.83083
2.96332
3.11897
3.26915
3.40137
3.62075
3.56755
2.85187
3.47922
3.53763
3.61351
3.70866
3.81856
3.93164
4.03545
4.09592
4.08851
4.08064
3.93517
2.90609
4.90238
4.98716
5.05638
5.11061
5.14975
5.16924
5.16116
5.09131
4.93631
4.73715
4.4544
3.14183
6.12191
6.18334
6.22622
6.25088
6.25566
6.2348
6.17715
6.06698
5.86406
5.57801
5.23867
3.73241
7.23581
7.28414
7.31362
7.32466
7.31578
7.2825
7.21349
7.09677
6.90249
6.60736
6.24991
4.75457
8.2571
8.29227
8.31215
8.31784
8.3088
8.28235
8.23158
8.14521
8.00149
7.77403
7.49529
6.1646
9.19139
9.21502
9.22909
9.23568
9.23594
9.22958
9.21392
9.18331
9.12813
9.02709
8.92059
7.94815
10.0416
10.055
10.0651
10.0751
10.0883
10.1074
10.1342
10.171
10.2229
10.2883
10.4427
10.0302
10.8109
10.8151
10.8212
10.8337
10.8582
10.901
10.9681
11.0704
11.2274
11.4666
11.9941
12.3371
11.4976
11.4951
11.4976
11.5097
11.5395
11.5979
11.6933
11.845
12.0801
12.465
13.4046
14.6692
12.0986
12.0937
12.0944
12.1043
12.132
12.1925
12.296
12.466
12.722
13.1565
14.2015
16.1803
12.9401
13.1331
13.0251
12.9036
12.8424
12.7854
12.7286
12.6789
12.6416
12.6177
12.609
12.6065
13.2971
13.1676
13.1653
13.1218
13.0933
13.0568
13.0168
12.9858
12.9711
12.9731
12.9932
13.0169
13.4305
13.345
13.3209
13.2705
13.2332
13.2004
13.1762
13.1707
13.1894
13.2308
13.2949
13.3599
13.5155
13.4439
13.388
13.3251
13.2752
13.2425
13.2342
13.2601
13.3259
13.4299
13.5679
13.7132
12.6122
12.6111
12.6127
12.6197
12.6397
12.6888
12.7785
12.9328
13.1449
13.456
13.8159
14.7877
13.0479
13.0559
13.0605
13.0617
13.0676
13.0931
13.1509
13.2663
13.4196
13.6458
13.7521
14.042
13.4283
13.4448
13.4523
13.4416
13.4244
13.4143
13.4235
13.4792
13.5597
13.7142
13.7432
13.8288
13.8431
13.854
13.8579
13.8207
13.7615
13.6914
13.6218
13.5817
13.5598
13.6235
13.614
13.6901
12.9403
13.1331
13.025
12.9036
12.8425
12.7855
12.7287
12.6791
12.6417
12.6179
12.6092
12.6067
13.2973
13.1676
13.1653
13.1218
13.0933
13.0568
13.0169
12.9858
12.9711
12.9732
12.9934
13.0171
13.4308
13.345
13.3209
13.2705
13.2331
13.2003
13.1761
13.1706
13.1894
13.2308
13.295
13.3601
13.516
13.444
13.3881
13.3251
13.2751
13.2423
13.2339
13.2599
13.3257
13.4298
13.5679
13.7133
12.6125
12.6114
12.613
12.6199
12.6399
12.689
12.7788
12.933
13.1451
13.4561
13.8162
14.7878
13.0482
13.0562
13.0608
13.062
13.0678
13.0933
13.1511
13.2665
13.4198
13.6461
13.7522
14.0422
13.4286
13.445
13.4525
13.4419
13.4247
13.4146
13.4238
13.4795
13.56
13.7144
13.7434
13.8291
13.8433
13.8543
13.8582
13.821
13.7618
13.6917
13.6221
13.582
13.5601
13.6238
13.6142
13.6903
12.9403
13.1335
13.0256
12.9041
12.8429
12.7859
12.7291
12.6794
12.642
12.6182
12.6094
12.6069
13.2976
13.168
13.1658
13.1223
13.0938
13.0573
13.0173
12.9863
12.9716
12.9736
12.9937
13.0173
13.4311
13.3454
13.3214
13.271
13.2337
13.2009
13.1767
13.1712
13.1899
13.2313
13.2954
13.3604
13.5162
13.4444
13.3885
13.3256
13.2757
13.2431
13.2347
13.2607
13.3265
13.4304
13.5684
13.7136
12.6126
12.6116
12.6131
12.62
12.64
12.6892
12.7789
12.9331
13.1451
13.4562
13.8161
14.7882
13.0483
13.0563
13.0609
13.0621
13.0679
13.0934
13.1512
13.2666
13.4199
13.646
13.7522
14.0423
13.4288
13.4452
13.4526
13.442
13.4248
13.4146
13.4239
13.4796
13.5601
13.7144
13.7433
13.8291
13.8435
13.8544
13.8582
13.821
13.7618
13.6918
13.6222
13.5821
13.5602
13.6238
13.6143
13.6904
12.9406
13.1334
13.0254
12.904
12.8428
12.7858
12.729
12.6793
12.6419
12.618
12.6093
12.6067
13.2977
13.168
13.1657
13.1222
13.0937
13.0572
13.0172
12.9862
12.9714
12.9734
12.9935
13.0171
13.4311
13.3454
13.3213
13.271
13.2336
13.2008
13.1766
13.1711
13.1898
13.2311
13.2951
13.3602
13.5163
13.4444
13.3885
13.3255
13.2756
13.2429
13.2346
13.2605
13.3263
13.4302
13.5682
13.7134
12.6124
12.6113
12.6128
12.6198
12.6397
12.6888
12.7786
12.9328
13.1449
13.456
13.816
14.7875
13.0481
13.0561
13.0606
13.0618
13.0676
13.0931
13.1509
13.2663
13.4196
13.6459
13.7521
14.0418
13.4286
13.445
13.4524
13.4417
13.4245
13.4143
13.4235
13.4792
13.5597
13.7141
13.7431
13.8286
13.8433
13.8543
13.8581
13.8208
13.7616
13.6915
13.6218
13.5816
13.5597
13.6234
13.6138
13.6897
13.6088
13.5583
13.4989
13.4378
13.384
13.346
13.3324
13.3522
13.4112
13.5093
13.6391
13.7917
13.7203
13.6744
13.6217
13.5687
13.5198
13.4809
13.4587
13.4608
13.4927
13.5551
13.6422
13.7525
13.8031
13.7602
13.7119
13.663
13.615
13.5724
13.541
13.5283
13.5416
13.5835
13.651
13.7443
13.8633
13.8222
13.776
13.7276
13.677
13.6279
13.5858
13.5593
13.5585
13.5896
13.6501
13.6964
13.9797
14.0103
14.0368
14.0086
13.9557
13.8831
13.8016
13.7305
13.6697
13.6662
13.6281
13.6713
13.9666
13.9958
14.038
14.0304
14.005
13.9644
13.918
13.8772
13.84
13.8278
13.7886
13.7838
14.0149
14.0177
14.0642
14.067
14.0551
14.0302
13.9999
13.9709
13.9416
13.9228
13.8845
13.861
14.1603
14.078
14.1037
14.1068
14.0993
14.0821
14.0594
14.035
14.0077
13.9838
13.9455
13.9144
13.6092
13.5585
13.499
13.4378
13.3839
13.3458
13.3321
13.352
13.411
13.5091
13.639
13.7918
13.7207
13.6746
13.6218
13.5687
13.5197
13.4808
13.4585
13.4606
13.4925
13.5549
13.6421
13.7526
13.8034
13.7603
13.712
13.663
13.615
13.5724
13.5409
13.5282
13.5415
13.5834
13.6509
13.7442
13.8636
13.8223
13.7761
13.7277
13.677
13.6278
13.5857
13.5592
13.5584
13.5894
13.65
13.6962
13.98
14.0107
14.0371
14.009
13.956
13.8834
13.8019
13.7308
13.67
13.6665
13.6284
13.6716
13.9669
13.9961
14.0383
14.0308
14.0054
13.9648
13.9184
13.8775
13.8404
13.8281
13.7889
13.7842
14.0152
14.018
14.0646
14.0674
14.0554
14.0306
14.0003
13.9713
13.942
13.9232
13.8849
13.8614
14.1608
14.0784
14.1042
14.1073
14.0998
14.0826
14.0598
14.0354
14.0081
13.9842
13.9459
13.9147
13.6095
13.5589
13.4995
13.4383
13.3845
13.3465
13.333
13.3528
13.4118
13.5099
13.6396
13.7922
13.721
13.6749
13.6222
13.5692
13.5203
13.4815
13.4593
13.4613
13.4932
13.5556
13.6427
13.753
13.8038
13.7607
13.7125
13.6635
13.6156
13.573
13.5415
13.5289
13.5422
13.584
13.6514
13.7447
13.864
13.8227
13.7765
13.7281
13.6775
13.6284
13.5863
13.5598
13.559
13.5901
13.6505
13.6967
13.9802
14.0108
14.0372
14.009
13.9561
13.8834
13.802
13.7309
13.6701
13.6666
13.6284
13.6716
13.9671
13.9963
14.0384
14.0309
14.0055
13.9649
13.9185
13.8776
13.8405
13.8282
13.789
13.7842
14.0154
14.0181
14.0647
14.0675
14.0555
14.0307
14.0003
13.9714
13.9421
13.9233
13.8849
13.8615
14.1609
14.0785
14.1042
14.1073
14.0998
14.0826
14.0599
14.0354
14.0082
13.9843
13.9459
13.9148
13.6096
13.5589
13.4994
13.4383
13.3844
13.3464
13.3328
13.3526
13.4116
13.5096
13.6394
13.7919
13.721
13.675
13.6222
13.5691
13.5202
13.4813
13.4591
13.4611
13.493
13.5553
13.6425
13.7527
13.8038
13.7607
13.7124
13.6635
13.6154
13.5728
13.5413
13.5286
13.5419
13.5838
13.6512
13.7444
13.864
13.8228
13.7765
13.7281
13.6774
13.6282
13.5861
13.5596
13.5588
13.5898
13.6503
13.6965
13.9799
14.0106
14.037
14.0088
13.9558
13.8831
13.8016
13.7305
13.6696
13.666
13.6279
13.6709
13.9668
13.996
14.0382
14.0306
14.0052
13.9645
13.9181
13.8772
13.84
13.8277
13.7885
13.7835
14.0151
14.0179
14.0644
14.0672
14.0552
14.0303
13.9999
13.9709
13.9416
13.9228
13.8845
13.8608
14.1605
14.0782
14.1039
14.107
14.0995
14.0822
14.0595
14.035
14.0077
13.9838
13.9455
13.9141
13.9066
13.8655
13.8189
13.7683
13.7126
13.6548
13.6005
13.5588
13.5403
13.5464
13.5758
13.4954
13.9365
13.8936
13.8448
13.7901
13.7277
13.6603
13.5937
13.5375
13.5026
13.4882
13.5165
13.5049
13.956
13.9107
13.8583
13.7986
13.7292
13.653
13.5761
13.5097
13.4671
13.4513
13.477
13.4963
13.9681
13.9201
13.864
13.7992
13.7237
13.6406
13.557
13.486
13.443
13.4329
13.4602
13.4938
13.9751
13.9249
13.8654
13.7963
13.7162
13.6285
13.5418
13.4707
13.4308
13.4271
13.4598
13.5015
13.9791
13.9271
13.8652
13.7929
13.7097
13.6198
13.5326
13.4638
13.4286
13.4316
13.4719
13.5169
13.9817
13.9286
13.8652
13.7909
13.7061
13.6155
13.5293
13.464
13.4338
13.4429
13.4903
13.5373
13.9842
13.9307
13.8667
13.7915
13.7062
13.6159
13.5312
13.4696
13.4435
13.4582
13.5115
13.5589
13.9879
13.9347
13.8711
13.796
13.7109
13.6212
13.5376
13.4788
13.4553
13.4741
13.5312
13.5789
13.9946
13.943
13.8808
13.8068
13.7224
13.6327
13.5487
13.4907
13.4664
13.4867
13.5457
13.5949
14.0062
13.9579
13.8988
13.8269
13.7433
13.6528
13.566
13.5055
13.4757
13.4949
13.5561
13.6035
14.016
13.9713
13.916
13.8477
13.7667
13.6768
13.5902
13.5195
13.4878
13.504
13.5624
13.6052
14.4426
14.2091
14.1505
14.1431
14.1345
14.1209
14.1022
14.0799
14.0534
14.0266
13.9887
13.9537
14.4299
14.2643
14.1841
14.1705
14.1612
14.1493
14.1326
14.1111
14.0846
14.0561
14.0188
13.9818
14.3899
14.2642
14.2049
14.1892
14.181
14.1699
14.154
14.1325
14.1056
14.0758
14.0389
14.0008
14.3483
14.2518
14.217
14.202
14.1953
14.1847
14.1689
14.147
14.1196
14.0886
14.0519
14.013
14.3138
14.2412
14.224
14.211
14.2056
14.1953
14.1792
14.1566
14.1287
14.0968
14.06
14.0204
14.2901
14.2347
14.2284
14.2176
14.213
14.2028
14.1861
14.1628
14.1343
14.1019
14.065
14.0249
14.2783
14.2332
14.2317
14.2227
14.2183
14.208
14.1906
14.1666
14.1376
14.105
14.0682
14.0278
14.2758
14.2376
14.2349
14.2268
14.2219
14.2112
14.1932
14.1686
14.1394
14.1069
14.0706
14.0303
14.2796
14.2473
14.2384
14.2297
14.2233
14.2125
14.194
14.1692
14.1402
14.1082
14.0728
14.0332
14.2869
14.26
14.2422
14.2302
14.2215
14.2105
14.1924
14.168
14.1401
14.1096
14.0759
14.0382
14.2967
14.2719
14.2463
14.2283
14.2163
14.2047
14.1872
14.1645
14.1391
14.1114
14.0809
14.0464
14.3075
14.2814
14.2493
14.2274
14.2127
14.1993
14.1819
14.1609
14.1378
14.1127
14.0847
14.053
13.9069
13.8656
13.819
13.7684
13.7126
13.6548
13.6004
13.5587
13.5402
13.5462
13.5755
13.4951
13.9366
13.8937
13.8449
13.7901
13.7277
13.6603
13.5936
13.5374
13.5025
13.488
13.5162
13.5046
13.9561
13.9107
13.8584
13.7986
13.7292
13.6529
13.5761
13.5096
13.4669
13.4511
13.4767
13.496
13.9682
13.9201
13.864
13.7992
13.7237
13.6405
13.557
13.4859
13.4428
13.4327
13.4599
13.4935
13.9751
13.9249
13.8654
13.7963
13.7162
13.6285
13.5418
13.4705
13.4306
13.4269
13.4596
13.5012
13.9791
13.9271
13.8652
13.7928
13.7097
13.6197
13.5325
13.4637
13.4284
13.4313
13.4717
13.5167
13.9816
13.9286
13.8651
13.7908
13.706
13.6154
13.5292
13.4639
13.4336
13.4427
13.4901
13.5371
13.9842
13.9306
13.8666
13.7915
13.7061
13.6158
13.5311
13.4694
13.4433
13.458
13.5112
13.5587
13.9878
13.9346
13.871
13.7959
13.7108
13.6211
13.5375
13.4786
13.4551
13.4739
13.531
13.5787
13.9945
13.943
13.8808
13.8067
13.7223
13.6326
13.5486
13.4905
13.4662
13.4865
13.5455
13.5947
14.0061
13.9578
13.8987
13.8268
13.7432
13.6527
13.5658
13.5053
13.4755
13.4947
13.5559
13.6033
14.0159
13.9713
13.916
13.8476
13.7666
13.6767
13.5901
13.5194
13.4876
13.5038
13.5622
13.605
14.4434
14.2097
14.1509
14.1436
14.135
14.1214
14.1026
14.0803
14.0538
14.027
13.9891
13.954
14.4308
14.265
14.1846
14.1709
14.1617
14.1498
14.1331
14.1115
14.0851
14.0565
14.0192
13.9822
14.3907
14.2648
14.2054
14.1897
14.1815
14.1704
14.1545
14.133
14.1061
14.0762
14.0393
14.0012
14.3491
14.2525
14.2175
14.2025
14.1958
14.1852
14.1694
14.1475
14.1201
14.0891
14.0523
14.0134
14.3145
14.2418
14.2245
14.2115
14.2061
14.1958
14.1797
14.1571
14.1291
14.0973
14.0604
14.0208
14.2908
14.2353
14.2289
14.2182
14.2136
14.2033
14.1866
14.1633
14.1348
14.1024
14.0654
14.0253
14.2789
14.2338
14.2323
14.2233
14.2189
14.2085
14.1911
14.1671
14.1381
14.1054
14.0687
14.0282
14.2765
14.2382
14.2355
14.2274
14.2224
14.2118
14.1937
14.1691
14.1399
14.1073
14.071
14.0307
14.2803
14.2479
14.239
14.2303
14.2239
14.2131
14.1946
14.1696
14.1406
14.1086
14.0732
14.0336
14.2876
14.2606
14.2428
14.2308
14.222
14.2111
14.1929
14.1685
14.1405
14.11
14.0763
14.0385
14.2974
14.2726
14.2469
14.2289
14.2168
14.2053
14.1877
14.1649
14.1395
14.1119
14.0813
14.0467
14.3082
14.282
14.2499
14.228
14.2133
14.1999
14.1823
14.1613
14.1383
14.1131
14.0851
14.0534
13.9072
13.8659
13.8194
13.7688
13.7131
13.6553
13.601
13.5594
13.5408
13.5468
13.5761
13.4956
13.937
13.8941
13.8452
13.7905
13.7281
13.6608
13.5942
13.538
13.5031
13.4886
13.5167
13.5052
13.9565
13.9111
13.8588
13.799
13.7296
13.6534
13.5766
13.5102
13.4675
13.4517
13.4773
13.4965
13.9685
13.9205
13.8644
13.7996
13.7242
13.641
13.5575
13.4865
13.4434
13.4333
13.4605
13.4941
13.9755
13.9252
13.8658
13.7967
13.7166
13.629
13.5423
13.4711
13.4313
13.4275
13.4602
13.5017
13.9794
13.9274
13.8655
13.7932
13.7101
13.6202
13.533
13.4643
13.4291
13.4319
13.4723
13.5172
13.982
13.9289
13.8655
13.7912
13.7064
13.6159
13.5297
13.4645
13.4342
13.4433
13.4906
13.5376
13.9845
13.931
13.867
13.7919
13.7066
13.6163
13.5316
13.47
13.4439
13.4586
13.5118
13.5592
13.9881
13.935
13.8713
13.7963
13.7113
13.6216
13.5381
13.4792
13.4557
13.4745
13.5315
13.5792
13.9949
13.9433
13.8811
13.8071
13.7227
13.6331
13.5491
13.4911
13.4668
13.4871
13.546
13.5952
14.0065
13.9582
13.8991
13.8272
13.7437
13.6531
13.5664
13.5059
13.4761
13.4952
13.5564
13.6038
14.0163
13.9717
13.9163
13.848
13.767
13.6771
13.5906
13.5199
13.4882
13.5044
13.5627
13.6055
14.4434
14.2097
14.151
14.1436
14.135
14.1214
14.1027
14.0804
14.0539
14.0271
13.9891
13.9541
14.4307
14.265
14.1847
14.171
14.1617
14.1499
14.1331
14.1116
14.0851
14.0565
14.0193
13.9822
14.3906
14.2648
14.2055
14.1898
14.1815
14.1705
14.1545
14.133
14.1062
14.0762
14.0394
14.0013
14.349
14.2524
14.2175
14.2025
14.1958
14.1853
14.1695
14.1475
14.1201
14.0891
14.0523
14.0134
14.3144
14.2418
14.2245
14.2115
14.2061
14.1958
14.1797
14.1572
14.1292
14.0973
14.0605
14.0208
14.2908
14.2352
14.2289
14.2181
14.2136
14.2033
14.1866
14.1634
14.1348
14.1024
14.0655
14.0253
14.2789
14.2338
14.2323
14.2233
14.2189
14.2085
14.1911
14.1671
14.1382
14.1055
14.0687
14.0283
14.2764
14.2382
14.2355
14.2274
14.2224
14.2118
14.1937
14.1691
14.14
14.1074
14.071
14.0307
14.2803
14.2479
14.2389
14.2303
14.2239
14.2131
14.1946
14.1697
14.1407
14.1087
14.0732
14.0337
14.2876
14.2606
14.2427
14.2308
14.222
14.2111
14.1929
14.1685
14.1406
14.1101
14.0764
14.0386
14.2973
14.2725
14.2469
14.2289
14.2168
14.2053
14.1877
14.165
14.1396
14.1119
14.0813
14.0468
14.3082
14.282
14.2499
14.228
14.2133
14.1999
14.1824
14.1614
14.1383
14.1132
14.0852
14.0534
13.9073
13.866
13.8194
13.7687
13.713
13.6551
13.6008
13.5591
13.5406
13.5466
13.5759
13.4955
13.937
13.8941
13.8452
13.7905
13.728
13.6606
13.594
13.5377
13.5029
13.4884
13.5166
13.505
13.9565
13.9111
13.8587
13.7989
13.7295
13.6533
13.5764
13.51
13.4673
13.4515
13.4772
13.4964
13.9686
13.9205
13.8644
13.7995
13.724
13.6408
13.5573
13.4863
13.4432
13.4331
13.4603
13.494
13.9755
13.9252
13.8658
13.7966
13.7165
13.6288
13.5421
13.4709
13.4311
13.4273
13.46
13.5016
13.9795
13.9275
13.8655
13.7932
13.71
13.6201
13.5328
13.4641
13.4289
13.4318
13.4721
13.5171
13.9821
13.9289
13.8655
13.7912
13.7063
13.6158
13.5295
13.4643
13.434
13.4431
13.4905
13.5375
13.9846
13.931
13.867
13.7918
13.7065
13.6162
13.5315
13.4698
13.4438
13.4584
13.5117
13.5591
13.9882
13.935
13.8713
13.7963
13.7112
13.6214
13.5379
13.479
13.4555
13.4743
13.5314
13.5791
13.995
13.9434
13.8811
13.8071
13.7226
13.6329
13.5489
13.4909
13.4666
13.4869
13.5459
13.5951
14.0065
13.9582
13.8991
13.8272
13.7436
13.653
13.5662
13.5057
13.4759
13.4951
13.5563
13.6037
14.0163
13.9717
13.9163
13.8479
13.7669
13.677
13.5904
13.5197
13.488
13.5043
13.5625
13.6054
14.4427
14.2093
14.1507
14.1433
14.1347
14.1211
14.1023
14.0799
14.0534
14.0266
13.9887
13.9535
14.4301
14.2645
14.1843
14.1707
14.1614
14.1495
14.1327
14.1112
14.0847
14.0561
14.0188
13.9817
14.3901
14.2644
14.2051
14.1894
14.1812
14.1701
14.1541
14.1326
14.1057
14.0758
14.039
14.0008
14.3485
14.252
14.2171
14.2022
14.1955
14.1849
14.169
14.1471
14.1197
14.0887
14.0519
14.0129
14.3139
14.2414
14.2242
14.2111
14.2058
14.1954
14.1793
14.1567
14.1287
14.0969
14.06
14.0204
14.2903
14.2349
14.2285
14.2178
14.2132
14.2029
14.1862
14.1629
14.1344
14.102
14.0651
14.0249
14.2785
14.2334
14.2319
14.2229
14.2185
14.2081
14.1907
14.1667
14.1377
14.1051
14.0683
14.0278
14.276
14.2378
14.2351
14.227
14.222
14.2114
14.1933
14.1686
14.1395
14.1069
14.0706
14.0303
14.2798
14.2475
14.2385
14.2299
14.2235
14.2126
14.1941
14.1692
14.1402
14.1083
14.0728
14.0333
14.2871
14.2601
14.2423
14.2304
14.2216
14.2107
14.1925
14.1681
14.1401
14.1096
14.0759
14.0382
14.2968
14.2721
14.2464
14.2284
14.2164
14.2049
14.1873
14.1646
14.1391
14.1115
14.0809
14.0464
14.3077
14.2815
14.2494
14.2276
14.2129
14.1995
14.182
14.161
14.1379
14.1127
14.0847
14.053
)
;

boundaryField
{
    rotor
    {
        type            zeroGradient;
    }
    stator
    {
        type            zeroGradient;
    }
    front
    {
        type            empty;
    }
    back
    {
        type            empty;
    }
}


// ************************************************************************* //
