/*--------------------------------*- C++ -*----------------------------------*\
| =========                 |                                                 |
| \\      /  F ield         | OpenFOAM: The Open Source CFD Toolbox           |
|  \\    /   O peration     | Version:  4.0                                   |
|   \\  /    A nd           | Web:      www.OpenFOAM.org                      |
|    \\/     M anipulation  |                                                 |
\*---------------------------------------------------------------------------*/
FoamFile
{
    version     2.0;
    format      ascii;
    class       surfaceScalarField;
    location    "300";
    object      phi;
}
// * * * * * * * * * * * * * * * * * * * * * * * * * * * * * * * * * * * * * //

dimensions      [0 3 -1 0 0 0 0];

internalField   nonuniform List<scalar> 
5952
(
5.40154e-06
-5.4456e-06
9.14587e-06
-3.74852e-06
1.194e-05
-2.79103e-06
1.30888e-05
-1.15177e-06
1.21276e-05
9.64337e-07
8.22158e-06
3.91341e-06
1.90006e-06
6.32459e-06
-1.08917e-05
1.27975e-05
-2.62352e-05
1.53437e-05
-3.80999e-05
1.18645e-05
-4.75692e-05
9.46865e-06
6.89265e-06
-5.44633e-05
1.9219e-06
-7.36591e-06
3.49728e-06
-5.32425e-06
2.33897e-06
-1.6319e-06
-1.41883e-06
2.60661e-06
-9.09391e-06
8.64031e-06
-2.06806e-05
1.55018e-05
-3.29992e-05
1.8644e-05
-3.97015e-05
1.9501e-05
-4.23156e-05
1.79581e-05
-4.50901e-05
1.46386e-05
-4.74878e-05
1.1866e-05
9.06328e-06
-4.96594e-05
1.08738e-07
-7.47404e-06
-1.81312e-06
-3.40202e-06
-6.50777e-06
3.06352e-06
-1.47517e-05
1.0851e-05
-2.38861e-05
1.77754e-05
-2.98601e-05
2.1477e-05
-3.33437e-05
2.21283e-05
-3.50277e-05
2.11858e-05
-3.58661e-05
1.87966e-05
-3.69786e-05
1.57509e-05
-3.79958e-05
1.28828e-05
9.96751e-06
-3.89008e-05
-3.34241e-06
-4.13093e-06
-8.14024e-06
1.39618e-06
-1.41162e-05
9.04013e-06
-1.99737e-05
1.67093e-05
-2.4073e-05
2.18756e-05
-2.62343e-05
2.36393e-05
-2.72731e-05
2.31678e-05
-2.7687e-05
2.16004e-05
-2.79452e-05
1.90549e-05
-2.83164e-05
1.61219e-05
-2.86423e-05
1.32085e-05
1.02491e-05
-2.89244e-05
-4.74136e-06
6.11048e-07
-9.93828e-06
6.59357e-06
-1.44637e-05
1.35664e-05
-1.76964e-05
1.99431e-05
-1.92714e-05
2.34516e-05
-1.97221e-05
2.4091e-05
-1.96406e-05
2.3087e-05
-1.92148e-05
2.11751e-05
-1.88608e-05
1.87009e-05
-1.86885e-05
1.59496e-05
-1.86176e-05
1.31374e-05
1.02651e-05
-1.8634e-05
-4.94176e-06
5.55287e-06
-9.13979e-06
1.07928e-05
-1.20305e-05
1.6458e-05
-1.33049e-05
2.12189e-05
-1.32585e-05
2.34064e-05
-1.25399e-05
2.33733e-05
-1.15745e-05
2.21223e-05
-1.06155e-05
2.02164e-05
-9.83166e-06
1.79174e-05
-9.27811e-06
1.5396e-05
-8.91089e-06
1.27702e-05
1.00526e-05
-8.6985e-06
-4.32428e-06
9.87871e-06
-7.5154e-06
1.39847e-05
-8.96192e-06
1.79059e-05
-8.65459e-06
2.09129e-05
-7.26739e-06
2.20202e-05
-5.51444e-06
2.16214e-05
-3.78198e-06
2.03904e-05
-2.25544e-06
1.86904e-05
-1.02245e-06
1.66846e-05
-9.61955e-08
1.44699e-05
5.6592e-07
1.21081e-05
9.61033e-06
1.00811e-06
-3.86841e-06
1.37483e-05
-5.97823e-06
1.60955e-05
-5.97105e-06
1.78995e-05
-4.19333e-06
1.91359e-05
-1.56786e-06
1.93954e-05
1.175e-06
1.88791e-05
3.68778e-06
1.78781e-05
5.82825e-06
1.65504e-05
7.55309e-06
1.496e-05
8.87952e-06
1.31437e-05
9.86252e-06
1.11252e-05
8.91362e-06
1.05593e-05
-3.32607e-06
1.70752e-05
-4.4016e-06
1.71717e-05
-2.77272e-06
1.62712e-05
4.47376e-07
1.59162e-05
4.23407e-06
1.56092e-05
7.91199e-06
1.52016e-05
1.11761e-05
1.46144e-05
1.39194e-05
1.38075e-05
1.61322e-05
1.27475e-05
1.78569e-05
1.14191e-05
1.91653e-05
9.81696e-06
7.95085e-06
2.01282e-05
-3.54795e-06
2.06245e-05
-2.1109e-06
1.57353e-05
2.06681e-06
1.20939e-05
6.84089e-06
1.11426e-05
1.16206e-05
1.08299e-05
1.59843e-05
1.08384e-05
1.97496e-05
1.08496e-05
2.2877e-05
1.06803e-05
2.5398e-05
1.02268e-05
2.73778e-05
9.4396e-06
2.89041e-05
8.29079e-06
6.79811e-06
3.0057e-05
2.76873e-07
2.03503e-05
6.24069e-06
9.7727e-06
1.25619e-05
5.77334e-06
1.82651e-05
5.43995e-06
2.32503e-05
5.84524e-06
2.7501e-05
6.58814e-06
3.10612e-05
7.28988e-06
3.39846e-05
7.75732e-06
3.63404e-05
7.87121e-06
3.82016e-05
7.57866e-06
3.96592e-05
6.83337e-06
5.67166e-06
4.07858e-05
2.03636e-05
-1.28551e-08
2.87083e-05
1.4288e-06
3.39684e-05
5.13936e-07
3.81055e-05
1.30334e-06
4.13486e-05
2.60268e-06
4.40157e-05
3.92149e-06
4.62565e-05
5.0496e-06
4.81225e-05
5.89166e-06
4.96496e-05
6.34437e-06
5.08711e-05
6.35746e-06
5.18533e-05
5.85132e-06
5.26395e-05
4.88566e-06
-5.94789e-05
5.01519e-06
-6.23465e-05
2.86655e-06
-6.34928e-05
1.14638e-06
-6.28167e-05
-6.76736e-07
-6.05207e-05
-2.29563e-06
-5.64311e-05
-4.08977e-06
-5.0499e-05
-5.93164e-06
-4.25645e-05
-7.93407e-06
-3.25207e-05
-1.00434e-05
-2.05273e-05
-1.19927e-05
-8.43758e-06
-1.20885e-05
-8.43713e-06
-5.09618e-05
6.31721e-06
-5.17614e-05
3.66531e-06
-5.18217e-05
1.20674e-06
-5.1276e-05
-1.22293e-06
-4.98827e-05
-3.68864e-06
-4.75934e-05
-6.37912e-06
-4.41714e-05
-9.35307e-06
-3.94097e-05
-1.26953e-05
-3.30348e-05
-1.64176e-05
-2.48256e-05
-2.02014e-05
-1.38098e-05
-2.31034e-05
-2.22466e-05
-3.96322e-05
7.0483e-06
-4.01507e-05
4.18315e-06
-4.03123e-05
1.36825e-06
-4.00044e-05
-1.53113e-06
-3.9078e-05
-4.61479e-06
-3.74656e-05
-7.99152e-06
-3.50399e-05
-1.17784e-05
-3.16993e-05
-1.60354e-05
-2.7322e-05
-2.07943e-05
-2.13901e-05
-2.61327e-05
-1.29962e-05
-3.14965e-05
-3.52425e-05
-2.91689e-05
7.29253e-06
-2.93179e-05
4.33178e-06
-2.92629e-05
1.31317e-06
-2.89284e-05
-1.86579e-06
-2.82419e-05
-5.30124e-06
-2.7144e-05
-9.0894e-06
-2.55479e-05
-1.33741e-05
-2.33534e-05
-1.82296e-05
-2.03784e-05
-2.37689e-05
-1.61602e-05
-3.03503e-05
-9.8378e-06
-3.78181e-05
-4.50801e-05
-1.86916e-05
7.34995e-06
-1.8728e-05
4.36793e-06
-1.86792e-05
1.26425e-06
-1.85007e-05
-2.04449e-06
-1.81534e-05
-5.64842e-06
-1.7594e-05
-9.6487e-06
-1.67699e-05
-1.41979e-05
-1.56079e-05
-1.93913e-05
-1.39123e-05
-2.54639e-05
-1.15135e-05
-3.27487e-05
-7.53643e-06
-4.1795e-05
-5.26165e-05
-8.59389e-06
7.24517e-06
-8.54875e-06
4.32264e-06
-8.52221e-06
1.2376e-06
-8.48853e-06
-2.07811e-06
-8.43066e-06
-5.70625e-06
-8.33238e-06
-9.74663e-06
-8.19905e-06
-1.43309e-05
-7.97998e-06
-1.96098e-05
-7.59081e-06
-2.58531e-05
-6.8442e-06
-3.3495e-05
-4.99492e-06
-4.36441e-05
-5.76114e-05
1.27806e-06
6.97517e-06
1.41547e-06
4.18516e-06
1.44714e-06
1.20604e-06
1.38241e-06
-2.0133e-06
1.21565e-06
-5.53911e-06
9.2832e-07
-9.45901e-06
4.88915e-07
-1.38909e-05
-1.19279e-07
-1.90015e-05
-8.85336e-07
-2.50863e-05
-1.70736e-06
-3.26728e-05
-2.17116e-06
-4.31802e-05
-5.97823e-05
1.10239e-05
6.51064e-06
1.1294e-05
3.91516e-06
1.13883e-05
1.11182e-06
1.13039e-05
-1.9285e-06
1.10146e-05
-5.24945e-06
1.0471e-05
-8.91475e-06
9.59491e-06
-1.30143e-05
8.2925e-06
-1.76983e-05
6.45804e-06
-2.32514e-05
4.04681e-06
-3.02609e-05
1.39036e-06
-4.05227e-05
-5.83912e-05
2.0811e-05
5.82789e-06
2.12542e-05
3.47222e-06
2.14736e-05
8.92701e-07
2.14582e-05
-1.9126e-06
2.1167e-05
-4.95767e-06
2.05245e-05
-8.27147e-06
1.94022e-05
-1.18913e-05
1.76215e-05
-1.59168e-05
1.49274e-05
-2.05565e-05
1.10428e-05
-2.6375e-05
6.0048e-06
-3.54833e-05
-5.23858e-05
3.0915e-05
4.97008e-06
3.15214e-05
2.86593e-06
3.18937e-05
5.20815e-07
3.20162e-05
-2.03459e-06
3.18379e-05
-4.7787e-06
3.12661e-05
-7.69894e-06
3.01281e-05
-1.07524e-05
2.81646e-05
-1.39524e-05
2.49526e-05
-1.73432e-05
1.99698e-05
-2.13915e-05
1.23519e-05
-2.78643e-05
-4.00322e-05
4.16698e-05
4.08627e-06
4.23493e-05
2.18673e-06
4.28426e-05
2.79225e-08
4.3132e-05
-2.32347e-06
4.31592e-05
-4.80528e-06
4.28217e-05
-7.36061e-06
4.1919e-05
-9.84887e-06
4.01505e-05
-1.21829e-05
3.69417e-05
-1.41339e-05
3.15263e-05
-1.59747e-05
2.13481e-05
-1.76846e-05
-1.86835e-05
5.33276e-05
3.39823e-06
5.39359e-05
1.57874e-06
5.4479e-05
-5.14925e-07
5.49334e-05
-2.77745e-06
5.52314e-05
-5.10293e-06
5.52631e-05
-7.3917e-06
5.48239e-05
-9.40907e-06
5.36367e-05
-1.09951e-05
5.11563e-05
-1.16524e-05
4.63947e-05
-1.12133e-05
3.56115e-05
-6.90072e-06
1.69291e-05
5.44518e-06
-5.44623e-06
9.17487e-06
-3.73552e-06
1.19613e-05
-2.78642e-06
1.31079e-05
-1.15191e-06
1.21498e-05
9.5836e-07
8.25078e-06
3.90471e-06
1.93871e-06
6.31445e-06
-1.0827e-05
1.2772e-05
-2.61779e-05
1.53515e-05
-3.80553e-05
1.18781e-05
-4.75316e-05
9.47635e-06
6.90044e-06
-5.44326e-05
1.91832e-06
-7.36556e-06
3.50859e-06
-5.32771e-06
2.35896e-06
-1.63908e-06
-1.38928e-06
2.59397e-06
-9.04795e-06
8.61624e-06
-2.06278e-05
1.54857e-05
-3.29544e-05
1.86417e-05
-3.96842e-05
1.9503e-05
-4.23018e-05
1.79696e-05
-4.50736e-05
1.465e-05
-4.74723e-05
1.1875e-05
9.07196e-06
-4.96445e-05
1.16932e-07
-7.48226e-06
-1.79369e-06
-3.41793e-06
-6.47555e-06
3.04226e-06
-1.47108e-05
1.08288e-05
-2.38568e-05
1.77623e-05
-2.98439e-05
2.14736e-05
-3.33339e-05
2.21321e-05
-3.5022e-05
2.11919e-05
-3.58595e-05
1.88071e-05
-3.69702e-05
1.57606e-05
-3.7987e-05
1.28915e-05
9.97572e-06
-3.88912e-05
-3.33409e-06
-4.14803e-06
-8.12481e-06
1.37238e-06
-1.40989e-05
9.0167e-06
-1.99621e-05
1.66921e-05
-2.40678e-05
2.18687e-05
-2.62329e-05
2.36394e-05
-2.72724e-05
2.31721e-05
-2.76863e-05
2.16063e-05
-2.79426e-05
1.90634e-05
-2.83123e-05
1.61303e-05
-2.86376e-05
1.32164e-05
1.02567e-05
-2.89189e-05
-4.73652e-06
5.87936e-07
-9.93318e-06
6.56998e-06
-1.44625e-05
1.35459e-05
-1.76993e-05
1.993e-05
-1.92764e-05
2.34467e-05
-1.97271e-05
2.40908e-05
-1.96444e-05
2.30902e-05
-1.92174e-05
2.11796e-05
-1.8861e-05
1.87073e-05
-1.86871e-05
1.59562e-05
-1.86148e-05
1.31441e-05
1.02716e-05
-1.86302e-05
-4.94187e-06
5.53179e-06
-9.14376e-06
1.07715e-05
-1.20372e-05
1.64409e-05
-1.33142e-05
2.12079e-05
-1.32679e-05
2.34014e-05
-1.25478e-05
2.33722e-05
-1.15805e-05
2.21235e-05
-1.06193e-05
2.02193e-05
-9.83356e-06
1.79216e-05
-9.27808e-06
1.54011e-05
-8.90972e-06
1.27756e-05
1.00582e-05
-8.69627e-06
-4.32903e-06
9.86192e-06
-7.52334e-06
1.39673e-05
-8.97322e-06
1.78913e-05
-8.66691e-06
2.09028e-05
-7.27855e-06
2.20145e-05
-5.52388e-06
2.16185e-05
-3.789e-06
2.03896e-05
-2.26052e-06
1.86913e-05
-1.02543e-06
1.66871e-05
-9.76376e-08
1.44735e-05
5.65744e-07
1.21124e-05
9.6152e-06
1.0088e-06
-3.87485e-06
1.37384e-05
-5.9888e-06
1.60819e-05
-5.98402e-06
1.78874e-05
-4.20657e-06
1.91262e-05
-1.57978e-06
1.93885e-05
1.165e-06
1.88745e-05
3.67991e-06
1.78754e-05
5.82237e-06
1.65494e-05
7.54905e-06
1.49608e-05
8.87693e-06
1.31459e-05
9.86105e-06
1.11285e-05
8.91776e-06
1.05586e-05
-3.33343e-06
1.70733e-05
-4.41188e-06
1.71613e-05
-2.78486e-06
1.62609e-05
4.35097e-07
1.59068e-05
4.2228e-06
1.56014e-05
7.90235e-06
1.51955e-05
1.11682e-05
1.461e-05
1.39132e-05
1.38049e-05
1.61275e-05
1.27468e-05
1.78535e-05
1.14202e-05
1.91628e-05
9.81941e-06
7.95434e-06
2.01263e-05
-3.55222e-06
2.06272e-05
-2.1177e-06
1.57276e-05
2.05852e-06
1.20853e-05
6.83214e-06
1.11337e-05
1.16123e-05
1.08217e-05
1.59769e-05
1.08314e-05
1.97432e-05
1.08441e-05
2.28717e-05
1.06768e-05
2.53937e-05
1.02251e-05
2.73743e-05
9.43989e-06
2.89012e-05
8.29264e-06
6.80121e-06
3.00545e-05
2.77675e-07
2.03516e-05
6.2389e-06
9.76734e-06
1.25593e-05
5.76538e-06
1.8262e-05
5.43154e-06
2.3247e-05
5.83733e-06
2.74977e-05
6.58124e-06
3.10579e-05
7.28449e-06
3.39815e-05
7.75367e-06
3.63375e-05
7.86951e-06
3.81988e-05
7.57888e-06
3.96564e-05
6.83517e-06
5.67474e-06
4.07831e-05
2.03676e-05
-1.47976e-08
2.87133e-05
1.42249e-06
3.39723e-05
5.07212e-07
3.81081e-05
1.2963e-06
4.135e-05
2.59593e-06
4.40162e-05
3.91561e-06
4.62562e-05
5.04506e-06
4.81215e-05
5.88876e-06
4.96481e-05
6.34335e-06
5.0869e-05
6.35824e-06
5.18508e-05
5.85363e-06
5.26366e-05
4.8891e-06
-5.94528e-05
5.02038e-06
-6.23247e-05
2.87125e-06
-6.34745e-05
1.15023e-06
-6.28014e-05
-6.73539e-07
-6.0508e-05
-2.29302e-06
-5.64207e-05
-4.08754e-06
-5.04905e-05
-5.92983e-06
-4.25576e-05
-7.93259e-06
-3.25152e-05
-1.00422e-05
-2.0523e-05
-1.19918e-05
-8.43475e-06
-1.20876e-05
-8.43453e-06
-5.09483e-05
6.32419e-06
-5.17491e-05
3.67142e-06
-5.18106e-05
1.2118e-06
-5.12659e-05
-1.2186e-06
-4.98739e-05
-3.68485e-06
-4.75858e-05
-6.37577e-06
-4.41652e-05
-9.35014e-06
-3.94048e-05
-1.26927e-05
-3.30312e-05
-1.64154e-05
-2.48233e-05
-2.01995e-05
-1.38091e-05
-2.31014e-05
-2.22435e-05
-3.9623e-05
7.05562e-06
-4.01417e-05
4.1896e-06
-4.03039e-05
1.37391e-06
-3.99968e-05
-1.52607e-06
-3.90714e-05
-4.61027e-06
-3.74598e-05
-7.98742e-06
-3.5035e-05
-1.17747e-05
-3.16955e-05
-1.60321e-05
-2.73194e-05
-2.07913e-05
-2.13887e-05
-2.613e-05
-1.2996e-05
-3.14938e-05
-3.52392e-05
-2.9163e-05
7.2993e-06
-2.93116e-05
4.33792e-06
-2.92568e-05
1.31881e-06
-2.89225e-05
-1.86055e-06
-2.82366e-05
-5.29633e-06
-2.71393e-05
-9.08481e-06
-2.55441e-05
-1.33698e-05
-2.33504e-05
-1.82257e-05
-2.03763e-05
-2.37653e-05
-1.6159e-05
-3.03471e-05
-9.83726e-06
-3.78151e-05
-4.50766e-05
-1.86872e-05
7.35614e-06
-1.87234e-05
4.37377e-06
-1.86746e-05
1.26981e-06
-1.84961e-05
-2.0391e-06
-1.81493e-05
-5.6433e-06
-1.75904e-05
-9.64369e-06
-1.6767e-05
-1.41932e-05
-1.56056e-05
-1.93868e-05
-1.39109e-05
-2.54599e-05
-1.15127e-05
-3.27448e-05
-7.53654e-06
-4.17916e-05
-5.26129e-05
-8.59111e-06
7.25079e-06
-8.54566e-06
4.3282e-06
-8.51897e-06
1.24313e-06
-8.48546e-06
-2.0727e-06
-8.4277e-06
-5.70084e-06
-8.32994e-06
-9.74144e-06
-8.19695e-06
-1.43258e-05
-7.97859e-06
-1.9605e-05
-7.58962e-06
-2.58484e-05
-6.84406e-06
-3.3491e-05
-4.99479e-06
-4.36403e-05
-5.76081e-05
1.27932e-06
6.98032e-06
1.41711e-06
4.19051e-06
1.4489e-06
1.21145e-06
1.38427e-06
-2.00777e-06
1.21731e-06
-5.53365e-06
9.29858e-07
-9.45353e-06
4.90046e-07
-1.38857e-05
-1.18289e-07
-1.89963e-05
-8.85082e-07
-2.50816e-05
-1.70718e-06
-3.26681e-05
-2.17168e-06
-4.31765e-05
-5.97795e-05
1.10237e-05
6.51534e-06
1.12942e-05
3.92021e-06
1.13889e-05
1.11714e-06
1.13045e-05
-1.92307e-06
1.10153e-05
-5.24392e-06
1.04716e-05
-8.90927e-06
9.59542e-06
-1.30089e-05
8.29278e-06
-1.7693e-05
6.45827e-06
-2.32463e-05
4.0465e-06
-3.02564e-05
1.38998e-06
-4.05191e-05
-5.83887e-05
2.08097e-05
5.83215e-06
2.12532e-05
3.47697e-06
2.1473e-05
8.97819e-07
2.14578e-05
-1.90731e-06
2.11667e-05
-4.95227e-06
2.05243e-05
-8.26611e-06
1.94021e-05
-1.18859e-05
1.76215e-05
-1.59115e-05
1.49272e-05
-2.05513e-05
1.10423e-05
-2.63704e-05
6.00448e-06
-3.54793e-05
-5.23837e-05
3.09128e-05
4.97401e-06
3.15197e-05
2.87047e-06
3.18922e-05
5.25672e-07
3.2015e-05
-2.02949e-06
3.18369e-05
-4.7736e-06
3.12654e-05
-7.6938e-06
3.01277e-05
-1.07473e-05
2.81644e-05
-1.39473e-05
2.49523e-05
-1.73382e-05
1.99696e-05
-2.13863e-05
1.23513e-05
-2.78607e-05
-4.003e-05
4.16673e-05
4.09013e-06
4.23469e-05
2.19114e-06
4.28405e-05
3.25913e-08
4.31302e-05
-2.31866e-06
4.31578e-05
-4.80053e-06
4.28207e-05
-7.35588e-06
4.19184e-05
-9.84421e-06
4.01502e-05
-1.21781e-05
3.69418e-05
-1.41289e-05
3.1526e-05
-1.59701e-05
2.13483e-05
-1.76801e-05
-1.86809e-05
5.33247e-05
3.40231e-06
5.3933e-05
1.5831e-06
5.44764e-05
-5.10426e-07
5.49312e-05
-2.77305e-06
5.52298e-05
-5.09863e-06
5.52619e-05
-7.38758e-06
5.48233e-05
-9.40494e-06
5.36366e-05
-1.09909e-05
5.11563e-05
-1.1648e-05
4.63952e-05
-1.1208e-05
3.56117e-05
-6.89678e-06
1.69324e-05
5.44282e-06
-5.4425e-06
9.16813e-06
-3.73022e-06
1.19504e-05
-2.78036e-06
1.30893e-05
-1.14319e-06
1.21183e-05
9.74419e-07
8.20008e-06
3.9256e-06
1.87062e-06
6.33459e-06
-1.094e-05
1.28174e-05
-2.6272e-05
1.53334e-05
-3.81224e-05
1.18511e-05
-4.75836e-05
9.4612e-06
6.88577e-06
-5.44702e-05
1.91463e-06
-7.35682e-06
3.49234e-06
-5.30927e-06
2.32972e-06
-1.61833e-06
-1.43513e-06
2.62078e-06
-9.12142e-06
8.66123e-06
-2.07106e-05
1.55165e-05
-3.30206e-05
1.86457e-05
-3.9699e-05
1.94973e-05
-4.2311e-05
1.7946e-05
-4.50874e-05
1.46276e-05
-4.7484e-05
1.18577e-05
9.05601e-06
-4.9655e-05
1.05603e-07
-7.46261e-06
-1.82035e-06
-3.384e-06
-6.52289e-06
3.08406e-06
-1.47737e-05
1.08714e-05
-2.38999e-05
1.7788e-05
-2.98622e-05
2.14796e-05
-3.33394e-05
2.21237e-05
-3.50195e-05
2.11783e-05
-3.58585e-05
1.87852e-05
-3.6972e-05
1.57411e-05
-3.79895e-05
1.28749e-05
9.96093e-06
-3.8895e-05
-3.34511e-06
-4.11808e-06
-8.14743e-06
1.41763e-06
-1.41247e-05
9.06141e-06
-1.99774e-05
1.67244e-05
-2.40697e-05
2.18809e-05
-2.62265e-05
2.36374e-05
-2.72635e-05
2.31613e-05
-2.76768e-05
2.15923e-05
-2.79364e-05
1.9045e-05
-2.83086e-05
1.61133e-05
-2.86352e-05
1.32014e-05
1.02433e-05
-2.89179e-05
-4.74505e-06
6.25932e-07
-9.94117e-06
6.6134e-06
-1.44632e-05
1.35838e-05
-1.76909e-05
1.99529e-05
-1.92623e-05
2.34531e-05
-1.97114e-05
2.40875e-05
-1.96298e-05
2.30805e-05
-1.92047e-05
2.11679e-05
-1.88525e-05
1.86931e-05
-1.86815e-05
1.59426e-05
-1.86117e-05
1.31315e-05
1.02604e-05
-1.86288e-05
-4.9424e-06
5.56724e-06
-9.13801e-06
1.08095e-05
-1.20249e-05
1.64713e-05
-1.32958e-05
2.12249e-05
-1.32478e-05
2.34062e-05
-1.2529e-05
2.33697e-05
-1.15646e-05
2.21171e-05
-1.06069e-05
2.02107e-05
-9.82459e-06
1.79114e-05
-9.2723e-06
1.53906e-05
-8.9061e-06
1.27656e-05
1.00489e-05
-8.69452e-06
-4.32275e-06
9.89066e-06
-7.51068e-06
1.39977e-05
-8.95354e-06
1.79152e-05
-8.64416e-06
2.09166e-05
-7.25659e-06
2.20196e-05
-5.50442e-06
2.16185e-05
-3.77321e-06
2.03866e-05
-2.24804e-06
1.86863e-05
-1.01644e-06
1.66803e-05
-9.13769e-08
1.4466e-05
5.69776e-07
1.21047e-05
9.60768e-06
1.01122e-06
-3.86496e-06
1.37561e-05
-5.97121e-06
1.61047e-05
-5.96106e-06
1.79056e-05
-4.1823e-06
1.91384e-05
-1.55733e-06
1.93952e-05
1.18443e-06
1.88773e-05
3.69588e-06
1.78757e-05
5.83502e-06
1.65477e-05
7.55854e-06
1.49573e-05
8.88383e-06
1.31411e-05
9.86589e-06
1.1123e-05
8.91193e-06
1.05619e-05
-3.32169e-06
1.70784e-05
-4.39383e-06
1.71773e-05
-2.76252e-06
1.62746e-05
4.58246e-07
1.59179e-05
4.24434e-06
1.56093e-05
7.92115e-06
1.52008e-05
1.1184e-05
1.46131e-05
1.39259e-05
1.38061e-05
1.61375e-05
1.27461e-05
1.78611e-05
1.14179e-05
1.91685e-05
9.81594e-06
7.95012e-06
2.01306e-05
-3.54433e-06
2.0624e-05
-2.10426e-06
1.57377e-05
2.07567e-06
1.20951e-05
6.85055e-06
1.11432e-05
1.163e-05
1.08301e-05
1.59927e-05
1.08382e-05
1.97569e-05
1.08492e-05
2.28831e-05
1.068e-05
2.5403e-05
1.02266e-05
2.73817e-05
9.43952e-06
2.89071e-05
8.29086e-06
6.79833e-06
3.00591e-05
2.77831e-07
2.03483e-05
6.24567e-06
9.77081e-06
1.25686e-05
5.77261e-06
1.82725e-05
5.43966e-06
2.32574e-05
5.84541e-06
2.75075e-05
6.58833e-06
3.10667e-05
7.29022e-06
3.39892e-05
7.75784e-06
3.63441e-05
7.87196e-06
3.82044e-05
7.57955e-06
3.96612e-05
6.83437e-06
5.6727e-06
4.07872e-05
2.03646e-05
-1.53377e-08
2.8711e-05
1.42522e-06
3.39717e-05
5.12372e-07
3.8109e-05
1.30269e-06
4.1352e-05
2.60267e-06
4.40188e-05
3.92185e-06
4.6259e-05
5.05029e-06
4.81244e-05
5.8927e-06
4.96509e-05
6.34572e-06
5.08719e-05
6.35899e-06
5.18536e-05
5.85293e-06
5.26394e-05
4.88722e-06
-5.94816e-05
5.01116e-06
-6.23457e-05
2.86332e-06
-6.34897e-05
1.14416e-06
-6.28123e-05
-6.77925e-07
-6.05157e-05
-2.29646e-06
-5.6426e-05
-4.08991e-06
-5.04942e-05
-5.93157e-06
-4.25605e-05
-7.9335e-06
-3.25177e-05
-1.00426e-05
-2.05257e-05
-1.19916e-05
-8.43763e-06
-1.20875e-05
-8.4374e-06
-5.09564e-05
6.31227e-06
-5.17554e-05
3.66163e-06
-5.18156e-05
1.20436e-06
-5.12697e-05
-1.22426e-06
-4.98768e-05
-3.68923e-06
-4.75878e-05
-6.37905e-06
-4.41666e-05
-9.35245e-06
-3.94056e-05
-1.26942e-05
-3.30318e-05
-1.6416e-05
-2.48236e-05
-2.01995e-05
-1.3809e-05
-2.31016e-05
-2.22462e-05
-3.96264e-05
7.04334e-06
-4.01448e-05
4.17958e-06
-4.03066e-05
1.36597e-06
-3.99988e-05
-1.53233e-06
-3.9073e-05
-4.61507e-06
-3.7461e-05
-7.99102e-06
-3.5036e-05
-1.17773e-05
-3.16961e-05
-1.60338e-05
-2.73195e-05
-2.07923e-05
-2.13882e-05
-2.61305e-05
-1.2995e-05
-3.14943e-05
-3.52409e-05
-2.91631e-05
7.28829e-06
-2.93126e-05
4.32886e-06
-2.92582e-05
1.31135e-06
-2.89241e-05
-1.86661e-06
-2.8238e-05
-5.30118e-06
-2.71404e-05
-9.08857e-06
-2.55449e-05
-1.33726e-05
-2.33509e-05
-1.82276e-05
-2.03765e-05
-2.37665e-05
-1.6159e-05
-3.03476e-05
-9.83724e-06
-3.78155e-05
-4.50781e-05
-1.86872e-05
7.34647e-06
-1.8724e-05
4.36557e-06
-1.86756e-05
1.26284e-06
-1.84973e-05
-2.04502e-06
-1.81504e-05
-5.64815e-06
-1.75912e-05
-9.64768e-06
-1.67674e-05
-1.41961e-05
-1.56058e-05
-1.9389e-05
-1.39107e-05
-2.54611e-05
-1.15124e-05
-3.27456e-05
-7.53581e-06
-4.1792e-05
-5.26139e-05
-8.59049e-06
7.24246e-06
-8.54577e-06
4.32082e-06
-8.51952e-06
1.23657e-06
-8.48605e-06
-2.07841e-06
-8.4283e-06
-5.70583e-06
-8.33016e-06
-9.7455e-06
-8.19699e-06
-1.43291e-05
-7.97821e-06
-1.96073e-05
-7.58942e-06
-2.585e-05
-6.84327e-06
-3.34916e-05
-4.99448e-06
-4.36407e-05
-5.76085e-05
1.28062e-06
6.97322e-06
1.41765e-06
4.18389e-06
1.44907e-06
1.20536e-06
1.38423e-06
-2.0134e-06
1.21741e-06
-5.53862e-06
9.30075e-07
-9.45785e-06
4.90607e-07
-1.38891e-05
-1.17751e-07
-1.89988e-05
-8.84109e-07
-2.5083e-05
-1.70654e-06
-3.2669e-05
-2.17065e-06
-4.31766e-05
-5.97788e-05
1.10259e-05
6.50943e-06
1.12956e-05
3.91442e-06
1.13897e-05
1.11149e-06
1.13052e-05
-1.92843e-06
1.10159e-05
-5.24893e-06
1.04723e-05
-8.91365e-06
9.5963e-06
-1.30125e-05
8.29384e-06
-1.76956e-05
6.45918e-06
-2.3248e-05
4.0476e-06
-3.02569e-05
1.39077e-06
-4.05188e-05
-5.83874e-05
2.08128e-05
5.82744e-06
2.12555e-05
3.47205e-06
2.14746e-05
8.92757e-07
2.1459e-05
-1.91234e-06
2.11679e-05
-4.95713e-06
2.05254e-05
-8.27047e-06
1.94033e-05
-1.18896e-05
1.76226e-05
-1.59142e-05
1.49285e-05
-2.0553e-05
1.10437e-05
-2.63708e-05
6.00526e-06
-3.54791e-05
-5.23816e-05
3.09165e-05
4.9704e-06
3.15224e-05
2.86634e-06
3.18944e-05
5.21276e-07
3.20166e-05
-2.0341e-06
3.18383e-05
-4.77813e-06
3.12666e-05
-7.69806e-06
3.01288e-05
-1.07509e-05
2.81655e-05
-1.395e-05
2.49535e-05
-1.73399e-05
1.99707e-05
-2.13873e-05
1.23524e-05
-2.78597e-05
-4.00276e-05
4.16706e-05
4.08724e-06
4.23497e-05
2.18762e-06
4.28427e-05
2.87013e-08
4.3132e-05
-2.32282e-06
4.31592e-05
-4.8047e-06
4.28218e-05
-7.35983e-06
4.19193e-05
-9.84756e-06
4.01509e-05
-1.21807e-05
3.69423e-05
-1.41308e-05
3.1527e-05
-1.59706e-05
2.13486e-05
-1.76799e-05
-1.86784e-05
5.33273e-05
3.39955e-06
5.39354e-05
1.57983e-06
5.44784e-05
-5.14073e-07
5.49329e-05
-2.77682e-06
5.5231e-05
-5.10242e-06
5.52628e-05
-7.39099e-06
5.48235e-05
-9.4078e-06
5.36364e-05
-1.0993e-05
5.1156e-05
-1.16493e-05
4.63946e-05
-1.12095e-05
3.56117e-05
-6.89617e-06
1.69342e-05
5.44579e-06
-5.44667e-06
9.176e-06
-3.73595e-06
1.19625e-05
-2.78631e-06
1.31088e-05
-1.15155e-06
1.215e-05
9.59157e-07
8.24859e-06
3.90721e-06
1.93248e-06
6.3186e-06
-1.08412e-05
1.278e-05
-2.61941e-05
1.53536e-05
-3.80712e-05
1.18779e-05
-4.75479e-05
9.47672e-06
6.90002e-06
-5.44485e-05
1.91923e-06
-7.36677e-06
3.51025e-06
-5.32877e-06
2.3605e-06
-1.63869e-06
-1.3894e-06
2.59612e-06
-9.05213e-06
8.62118e-06
-2.06361e-05
1.54923e-05
-3.29652e-05
1.86484e-05
-3.96925e-05
1.95086e-05
-4.23109e-05
1.79724e-05
-4.50842e-05
1.46514e-05
-4.74835e-05
1.18759e-05
9.07197e-06
-4.9656e-05
1.18178e-07
-7.48461e-06
-1.7917e-06
-3.41964e-06
-6.47396e-06
3.04315e-06
-1.47116e-05
1.08333e-05
-2.38605e-05
1.77703e-05
-2.985e-05
2.14825e-05
-3.33408e-05
2.21397e-05
-3.50293e-05
2.11978e-05
-3.58675e-05
1.88107e-05
-3.6979e-05
1.57629e-05
-3.79962e-05
1.28928e-05
9.97604e-06
-3.89008e-05
-3.33293e-06
-4.15141e-06
-8.12335e-06
1.37046e-06
-1.40988e-05
9.01903e-06
-1.99645e-05
1.66993e-05
-2.40724e-05
2.18788e-05
-2.62383e-05
2.36492e-05
-2.72784e-05
2.31803e-05
-2.76928e-05
2.16127e-05
-2.79497e-05
1.90676e-05
-2.83199e-05
1.6133e-05
-2.86454e-05
1.3218e-05
1.02571e-05
-2.89267e-05
-4.73564e-06
5.83838e-07
-9.93302e-06
6.56887e-06
-1.44638e-05
1.35497e-05
-1.77022e-05
1.99389e-05
-1.92803e-05
2.34578e-05
-1.97314e-05
2.41012e-05
-1.96491e-05
2.30989e-05
-1.92224e-05
2.11863e-05
-1.88664e-05
1.8712e-05
-1.86928e-05
1.59593e-05
-1.86208e-05
1.31459e-05
1.02721e-05
-1.86362e-05
-4.94165e-06
5.52766e-06
-9.14413e-06
1.0771e-05
-1.20386e-05
1.64457e-05
-1.33163e-05
2.12177e-05
-1.32703e-05
2.34129e-05
-1.25505e-05
2.33828e-05
-1.15834e-05
2.21324e-05
-1.06224e-05
2.02262e-05
-9.83705e-06
1.79267e-05
-9.28183e-06
1.54045e-05
-8.91364e-06
1.27775e-05
1.00588e-05
-8.70027e-06
-4.32915e-06
9.85802e-06
-7.52392e-06
1.39674e-05
-8.97422e-06
1.78966e-05
-8.66785e-06
2.09126e-05
-7.27927e-06
2.20257e-05
-5.52448e-06
2.1629e-05
-3.7897e-06
2.03986e-05
-2.26144e-06
1.86985e-05
-1.02666e-06
1.66925e-05
-9.91532e-08
1.44772e-05
5.64011e-07
1.21145e-05
9.61595e-06
1.00693e-06
-3.87511e-06
1.37349e-05
-5.9896e-06
1.60826e-05
-5.98486e-06
1.78928e-05
-4.20658e-06
1.91352e-05
-1.57889e-06
1.93989e-05
1.16639e-06
1.88846e-05
3.68139e-06
1.78844e-05
5.82368e-06
1.65568e-05
7.55006e-06
1.49666e-05
8.87762e-06
1.31499e-05
9.86146e-06
1.11309e-05
8.91873e-06
1.05588e-05
-3.33443e-06
1.70708e-05
-4.41338e-06
1.71626e-05
-2.78584e-06
1.62658e-05
4.3547e-07
1.59145e-05
4.22448e-06
1.56105e-05
7.90484e-06
1.52048e-05
1.11711e-05
1.46187e-05
1.3916e-05
1.38124e-05
1.61302e-05
1.27528e-05
1.78559e-05
1.14245e-05
1.91649e-05
9.82211e-06
7.95554e-06
2.01283e-05
-3.55411e-06
2.06268e-05
-2.11996e-06
1.57293e-05
2.057e-06
1.20895e-05
6.83196e-06
1.114e-05
1.16134e-05
1.08295e-05
1.5979e-05
1.08398e-05
1.97459e-05
1.08523e-05
2.28747e-05
1.0684e-05
2.53968e-05
1.0231e-05
2.73774e-05
9.44421e-06
2.89043e-05
8.2954e-06
6.80247e-06
3.00575e-05
2.76372e-07
2.03525e-05
6.23653e-06
9.77014e-06
1.2557e-05
5.76957e-06
1.82605e-05
5.43725e-06
2.32464e-05
5.84429e-06
2.7498e-05
6.5887e-06
3.10591e-05
7.2918e-06
3.39833e-05
7.76023e-06
3.63398e-05
7.87487e-06
3.82016e-05
7.5828e-06
3.96596e-05
6.83762e-06
5.67578e-06
4.07865e-05
2.0365e-05
-1.13941e-08
2.87094e-05
1.42663e-06
3.39679e-05
5.11931e-07
3.81039e-05
1.30185e-06
4.13466e-05
2.60217e-06
4.40138e-05
3.92211e-06
4.62548e-05
5.05132e-06
4.81213e-05
5.89427e-06
4.96488e-05
6.34774e-06
5.08706e-05
6.36126e-06
5.18532e-05
5.85532e-06
5.26397e-05
4.88951e-06
-5.94683e-05
5.02004e-06
-6.23394e-05
2.87049e-06
-6.34884e-05
1.14936e-06
-6.28143e-05
-6.74523e-07
-6.05197e-05
-2.29414e-06
-5.64312e-05
-4.08879e-06
-5.04996e-05
-5.93113e-06
-4.25654e-05
-7.93402e-06
-3.25214e-05
-1.00437e-05
-2.05276e-05
-1.19934e-05
-8.43745e-06
-1.20894e-05
-8.43721e-06
-5.09598e-05
6.32375e-06
-5.17603e-05
3.67047e-06
-5.18214e-05
1.21053e-06
-5.12761e-05
-1.22016e-06
-4.98833e-05
-3.68674e-06
-4.75943e-05
-6.37795e-06
-4.41725e-05
-9.35259e-06
-3.94108e-05
-1.26954e-05
-3.30359e-05
-1.64183e-05
-2.48265e-05
-2.02025e-05
-1.38107e-05
-2.31048e-05
-2.22478e-05
-3.96325e-05
7.05517e-06
-4.0151e-05
4.18849e-06
-4.03128e-05
1.37225e-06
-4.00051e-05
-1.52826e-06
-3.90789e-05
-4.61294e-06
-3.74664e-05
-7.99054e-06
-3.50406e-05
-1.17782e-05
-3.16999e-05
-1.60358e-05
-2.73226e-05
-2.07954e-05
-2.13907e-05
-2.61343e-05
-1.29968e-05
-3.14983e-05
-3.52444e-05
-2.91707e-05
7.2988e-06
-2.93192e-05
4.33661e-06
-2.92639e-05
1.31678e-06
-2.89292e-05
-1.86326e-06
-2.82425e-05
-5.29964e-06
-2.71445e-05
-9.08867e-06
-2.55484e-05
-1.33742e-05
-2.33538e-05
-1.82303e-05
-2.03788e-05
-2.37702e-05
-1.61606e-05
-3.03522e-05
-9.83814e-06
-3.78204e-05
-4.50825e-05
-1.86932e-05
7.35558e-06
-1.87291e-05
4.37228e-06
-1.868e-05
1.26748e-06
-1.85012e-05
-2.0422e-06
-1.81539e-05
-5.64709e-06
-1.75943e-05
-9.6481e-06
-1.67703e-05
-1.41982e-05
-1.56082e-05
-1.93922e-05
-1.39127e-05
-2.54655e-05
-1.15137e-05
-3.27507e-05
-7.53678e-06
-4.17976e-05
-5.26191e-05
-8.59508e-06
7.25022e-06
-8.54951e-06
4.3266e-06
-8.52261e-06
1.2406e-06
-8.48881e-06
-2.07607e-06
-8.4307e-06
-5.70497e-06
-8.33252e-06
-9.74623e-06
-8.19907e-06
-1.43312e-05
-7.98017e-06
-1.96108e-05
-7.59062e-06
-2.58546e-05
-6.84451e-06
-3.34973e-05
-4.99487e-06
-4.36466e-05
-5.76143e-05
1.2774e-06
6.97982e-06
1.41522e-06
4.1889e-06
1.4471e-06
1.20884e-06
1.38263e-06
-2.01128e-06
1.21586e-06
-5.53795e-06
9.28645e-07
-9.45854e-06
4.89119e-07
-1.38913e-05
-1.18882e-07
-1.90024e-05
-8.85295e-07
-2.50881e-05
-1.70706e-06
-3.26747e-05
-2.17137e-06
-4.31828e-05
-5.97853e-05
1.10238e-05
6.515e-06
1.12942e-05
3.91869e-06
1.13888e-05
1.11456e-06
1.13045e-05
-1.92657e-06
1.10154e-05
-5.24825e-06
1.04717e-05
-8.91432e-06
9.59563e-06
-1.30146e-05
8.29311e-06
-1.76992e-05
6.45874e-06
-2.32529e-05
4.04709e-06
-3.0263e-05
1.39052e-06
-4.05253e-05
-5.83938e-05
2.08115e-05
5.83198e-06
2.12549e-05
3.47558e-06
2.14746e-05
8.95346e-07
2.14593e-05
-1.91073e-06
2.11682e-05
-4.9565e-06
2.05257e-05
-8.27105e-06
1.94034e-05
-1.18914e-05
1.76227e-05
-1.59176e-05
1.49284e-05
-2.05578e-05
1.10433e-05
-2.63768e-05
6.00533e-06
-3.5485e-05
-5.23879e-05
3.09158e-05
4.97391e-06
3.15226e-05
2.86916e-06
3.18951e-05
5.23289e-07
3.20178e-05
-2.03279e-06
3.18396e-05
-4.77766e-06
3.12679e-05
-7.69852e-06
3.01299e-05
-1.07526e-05
2.81663e-05
-1.39531e-05
2.49539e-05
-1.73443e-05
1.9971e-05
-2.13924e-05
1.23524e-05
-2.78659e-05
-4.00329e-05
4.16708e-05
4.08989e-06
4.23506e-05
2.18976e-06
4.28442e-05
3.02087e-08
4.31339e-05
-2.32188e-06
4.31613e-05
-4.80442e-06
4.28239e-05
-7.36033e-06
4.19213e-05
-9.84915e-06
4.01528e-05
-1.21835e-05
3.69439e-05
-1.41345e-05
3.15276e-05
-1.59756e-05
2.13495e-05
-1.76846e-05
-1.86824e-05
5.33283e-05
3.40162e-06
5.39369e-05
1.58143e-06
5.44805e-05
-5.12953e-07
5.49352e-05
-2.77625e-06
5.52337e-05
-5.10236e-06
5.52656e-05
-7.39177e-06
5.48266e-05
-9.4095e-06
5.36395e-05
-1.09958e-05
5.11587e-05
-1.16531e-05
4.6397e-05
-1.12128e-05
3.56129e-05
-6.90053e-06
1.69321e-05
6.75873e-05
4.01343e-06
-7.1612e-05
6.67672e-05
2.24961e-06
6.51874e-05
2.09436e-06
6.4288e-05
2.20338e-06
6.39837e-05
2.90749e-06
6.40491e-05
3.85673e-06
6.42993e-05
4.79994e-06
6.46007e-05
5.59072e-06
6.48793e-05
6.06612e-06
6.51005e-05
6.13661e-06
6.53001e-05
5.65202e-06
4.6923e-06
6.54937e-05
8.69019e-05
3.21314e-06
-8.61018e-05
8.64348e-05
2.71707e-06
8.55845e-05
2.94496e-06
8.45427e-05
3.24557e-06
8.3559e-05
3.89158e-06
8.26721e-05
4.74401e-06
8.18591e-05
5.6133e-06
8.10895e-05
6.36067e-06
8.03508e-05
6.80515e-06
7.96552e-05
6.83244e-06
7.90805e-05
6.22707e-06
5.09493e-06
7.8678e-05
0.000100238
2.38742e-06
-9.9412e-05
0.000100387
2.56821e-06
0.000100186
3.14637e-06
9.96456e-05
3.78683e-06
9.88634e-05
4.67421e-06
9.7893e-05
5.71489e-06
9.67712e-05
6.73558e-06
9.55434e-05
7.58898e-06
9.42717e-05
8.07728e-06
9.30572e-05
8.04736e-06
9.20459e-05
7.2386e-06
5.7279e-06
9.1413e-05
0.000112079
-0.000111704
2.01145e-06
0.000112168
2.48e-06
0.000111988
3.32596e-06
0.000111501
4.2737e-06
0.000110717
5.45892e-06
0.000109669
6.76348e-06
0.000108408
7.99655e-06
0.000107026
8.97157e-06
0.000105646
9.45758e-06
0.000104459
9.23415e-06
0.00010367
8.02815e-06
0.000103721
5.67645e-06
6.58177e-05
3.07439e-06
6.62594e-05
1.13724e-06
6.68251e-05