/*--------------------------------*- C++ -*----------------------------------*\
| =========                 |                                                 |
| \\      /  F ield         | OpenFOAM: The Open Source CFD Toolbox           |
|  \\    /   O peration     | Version:  4.0                                   |
|   \\  /    A nd           | Web:      www.OpenFOAM.org                      |
|    \\/     M anipulation  |                                                 |
\*---------------------------------------------------------------------------*/
FoamFile
{
    version     2.0;
    format      ascii;
    class       volVectorField;
    location    "300";
    object      U;
}
// * * * * * * * * * * * * * * * * * * * * * * * * * * * * * * * * * * * * * //

dimensions      [0 1 -1 0 0 0 0];

internalField   nonuniform List<vector> 
3072
(
(0.225737 2.22463 0)
(0.251214 1.93306 0)
(0.336746 1.75503 1.3808e-19)
(0.447709 1.66083 8.45221e-19)
(0.56961 1.58681 -1.58439e-18)
(0.675404 1.66014 9.16194e-19)
(1.00047 1.8051 4.51322e-19)
(1.87211 1.55703 4.92789e-19)
(2.77022 1.77888 -2.59212e-19)
(3.04036 2.23085 8.48381e-19)
(3.33081 2.37976 5.8634e-19)
(3.60136 2.52925 5.98645e-19)
(-0.427364 2.75587 -2.49255e-19)
(-0.234901 2.374 -5.08776e-19)
(0.0354719 2.38204 5.28425e-19)
(0.378883 2.45943 0)
(0.893118 2.4637 8.47862e-19)
(1.73984 2.57738 -9.44642e-19)
(2.47364 2.9012 0)
(2.86686 2.93101 0)
(3.03261 2.9937 0)
(3.06961 3.01577 7.18656e-19)
(3.1725 3.01723 -2.5181e-18)
(3.29009 2.99539 4.26888e-19)
(-0.358975 3.03772 1.67777e-19)
(0.00232515 2.75874 0)
(0.536842 2.83475 0)
(1.20926 2.94282 -3.00099e-18)
(1.93784 3.11652 9.80926e-19)
(2.47069 3.16764 -1.91024e-18)
(2.81677 3.17045 1.94538e-18)
(3.01854 3.05647 0)
(3.13429 2.95924 0)
(3.20171 2.87761 -1.01681e-18)
(3.28772 2.79929 -1.0202e-18)
(3.37122 2.71812 3.45948e-18)
(-0.208355 3.32555 -1.41847e-18)
(0.290378 3.20076 -2.4239e-18)
(0.941617 3.33107 1.63501e-18)
(1.62097 3.41179 -1.5177e-18)
(2.19424 3.42495 3.54355e-18)
(2.571 3.33714 -3.80978e-18)
(2.79735 3.22489 -2.39036e-18)
(2.95449 3.08085 -5.75214e-18)
(3.04359 2.96278 -2.0785e-19)
(3.10688 2.86045 3.01647e-18)
(3.17505 2.76356 3.33243e-18)
(3.23891 2.66889 -2.74269e-18)
(0.0419901 3.51044 0)
(0.568451 3.52001 1.10176e-18)
(1.18862 3.61529 -2.2252e-18)
(1.79341 3.61328 3.14828e-18)
(2.24988 3.5255 5.55414e-19)
(2.534 3.38309 2.36786e-18)
(2.71723 3.23156 2.08979e-18)
(2.83213 3.07702 2.00153e-18)
(2.91337 2.93683 -4.10328e-18)
(2.98036 2.81217 3.55591e-18)
(3.04693 2.69685 -4.83579e-18)
(3.11233 2.58834 6.46671e-18)
(0.26864 3.66517 -3.30357e-18)
(0.781237 3.75861 1.48251e-18)
(1.33442 3.80051 4.25032e-18)
(1.84453 3.73176 0)
(2.21007 3.58794 -6.58691e-18)
(2.44147 3.41269 6.58391e-18)
(2.595 3.23562 0)
(2.70403 3.06402 -4.87402e-18)
(2.78744 2.90766 4.19694e-18)
(2.85881 2.76712 0)
(2.92667 2.63872 2.41323e-19)
(2.99259 2.52024 3.86115e-18)
(0.452548 3.82462 0)
(0.927773 3.9813 -3.47767e-18)
(1.40285 3.96361 3.19526e-18)
(1.82228 3.84694 0)
(2.12186 3.66242 -3.92214e-18)
(2.32194 3.45721 5.98513e-19)
(2.46389 3.25486 5.60557e-18)
(2.57186 3.06422 5.13399e-18)
(2.6596 2.89041 -4.52405e-18)
(2.73633 2.7337 4.45792e-18)
(2.80773 2.5916 -3.86375e-18)
(2.87587 2.46197 -1.08193e-17)
(0.61078 4.01061 0)
(1.02153 4.21402 3.11753e-18)
(1.41145 4.13666 -4.77726e-18)
(1.74997 3.97921 4.77743e-18)
(2.00184 3.75821 0)
(2.1852 3.522 -6.15582e-18)
(2.32515 3.29258 5.96079e-18)
(2.43756 3.07903 1.01055e-19)
(2.53196 2.88491 -9.74576e-18)
(2.61485 2.71029 -4.52472e-18)
(2.69046 2.55312 -2.42016e-19)
(2.76106 2.41116 8.05545e-18)
(0.713024 4.19016 0)
(1.07457 4.45604 -3.97658e-18)
(1.37271 4.31151 -5.56712e-18)
(1.63802 4.11143 -3.98479e-18)
(1.85517 3.85643 7.89229e-18)
(2.03119 3.5901 0)
(2.17557 3.33401 0)
(2.29635 3.09701 0)
(2.39946 2.8822 0)
(2.48953 2.68955 4.66325e-18)
(2.56991 2.51722 -4.6411e-18)
(2.6431 2.36275 4.41856e-18)
(0.81164 4.47699 0)
(1.0545 4.69283 2.92027e-18)
(1.25434 4.44202 -6.36368e-19)
(1.47278 4.18096 4.59627e-18)
(1.67173 3.89494 4.49908e-18)
(1.84749 3.60667 -7.15595e-18)
(2.00093 3.33387 0)
(2.13375 3.08255 -2.12166e-19)
(2.24847 2.85481 -1.7252e-17)
(2.3481 2.65049 0)
(2.43521 2.46799 1.05229e-17)
(2.51246 2.30481 -4.88997e-18)
(0.966127 4.56897 0)
(0.948511 4.68776 3.30507e-18)
(1.04096 4.35755 9.59715e-18)
(1.23089 4.04375 -8.14157e-18)
(1.426 3.75702 -1.13995e-17)
(1.61198 3.47916 1.79464e-17)
(1.78168 3.21935 -2.02905e-19)
(1.93213 2.97936 -6.96267e-18)
(2.06319 2.75979 5.65629e-18)
(2.17666 2.56068 -1.19129e-17)
(2.2742 2.38125 -1.63718e-17)
(2.35871 2.21956 1.64062e-17)
(0.386838 4.16919 -1.87124e-18)
(0.566876 4.1042 -1.24394e-17)
(0.700739 3.79637 2.37871e-18)
(0.903116 3.53583 0)
(1.12082 3.33033 0)
(1.33022 3.12793 3.57819e-19)
(1.52178 2.93135 1.88672e-17)
(1.69292 2.74176 1.16333e-17)
(1.84276 2.56123 0)
(1.97275 2.39192 1.08724e-17)
(2.08345 2.2351 0)
(2.17812 2.0903 4.85048e-19)
(3.87435 2.47054 6.83655e-19)
(4.07923 2.41926 -5.75962e-19)
(4.22663 2.2661 -1.58978e-19)
(4.30186 2.11689 -5.19603e-19)
(4.31059 1.91968 -2.45727e-19)
(4.25096 1.72081 0)
(4.11255 1.50451 0)
(3.89541 1.29421 7.78888e-19)
(3.59872 1.07439 -9.15191e-19)
(3.19064 0.826392 0)
(2.73959 0.420878 0)
(2.61842 -0.0996187 -6.2543e-19)
(3.40189 2.96138 1.4531e-18)
(3.51377 2.88893 0)
(3.62587 2.77973 -8.96188e-19)
(3.72714 2.63589 4.05286e-19)
(3.805 2.468 2.5405e-19)
(3.84151 2.29605 2.55184e-18)
(3.82876 2.12694 -4.12875e-18)
(3.76211 1.97505 6.555e-19)
(3.639 1.85714 0)
(3.36257 1.74507 0)
(3.08626 1.61814 0)
(3.20572 1.16971 6.8991e-19)
(3.4567 2.63267 1.3768e-18)
(3.54015 2.53978 -3.74759e-18)
(3.61956 2.43763 1.02888e-18)
(3.68418 2.33212 2.49504e-18)
(3.72707 2.2264 -2.56863e-18)
(3.7409 2.1276 0)
(3.72227 2.04609 0)
(3.67069 1.99069 -2.11929e-19)
(3.59322 1.96765 1.05758e-18)
(3.44438 1.96246 0)
(3.20848 1.95827 0)
(3.40498 1.85668 -4.4964e-19)
(3.3045 2.57602 3.09275e-19)
(3.3722 2.48255 3.75037e-18)
(3.43737 2.38694 2.6322e-18)
(3.4932 2.29265 -2.62673e-18)
(3.53508 2.2049 0)
(3.55961 2.13001 1.55917e-18)
(3.56376 2.07576 0)
(3.55105 2.04975 2.46712e-18)
(3.51933 2.05764 -7.32051e-19)
(3.44736 2.12035 0)
(3.26056 2.21407 -5.24223e-19)
(3.55291 2.29695 6.14997e-19)
(3.17848 2.48519 -2.6531e-18)
(3.24384 2.38602 0)
(3.30546 2.29111 0)
(3.36015 2.20336 0)
(3.40596 2.12698 0)
(3.44199 2.06709 -2.79208e-18)
(3.46665 2.03287 -1.25452e-19)
(3.4809 2.02833 -1.29364e-18)
(3.4911 2.06542 0)
(3.47864 2.1584 -1.01269e-18)
(3.35918 2.31454 4.73465e-19)
(3.7652 2.53325 -1.57982e-19)
(3.05782 2.40999 -2.13438e-19)
(3.12165 2.307 -6.40817e-18)
(3.18274 2.21173 3.03311e-18)
(3.23981 2.12641 4.53069e-22)
(3.2924 2.05452 1.98731e-19)
(3.34071 2.00062 4.41776e-18)
(3.38627 1.97089 -1.41188e-19)
(3.43121 1.97202 -4.99704e-18)
(3.47777 2.01549 -2.01804e-18)
(3.52912 2.11738 1.02269e-18)
(3.4746 2.31612 -1.27131e-18)
(3.93326 2.65569 -5.10704e-19)
(2.94195 2.34311 1.03347e-17)
(3.00615 2.23404 3.38139e-18)
(3.06837 2.13499 0)
(3.12879 2.04747 0)
(3.18829 1.97412 1.89855e-19)
(3.24858 1.91862 -3.23007e-18)
(3.31249 1.88604 5.08961e-18)
(3.38383 1.88261 -1.19889e-19)
(3.46633 1.91905 1.74066e-18)
(3.56717 2.01402 0)
(3.5906 2.21055 -2.31933e-19)
(4.08636 2.63107 -7.79968e-20)
(2.8281 2.28245 -3.85303e-18)
(2.89261 2.16564 -3.54316e-18)
(2.95554 2.06043 3.79984e-18)
(3.01819 1.96753 -3.5684e-18)
(3.08266 1.8886 1.1496e-21)
(3.15193 1.82624 7.14621e-18)
(3.2304 1.78411 -3.30184e-18)
(3.32394 1.76759 1.8754e-18)
(3.43871 1.78617 0)
(3.58775 1.85951 1.14607e-18)
(3.69192 2.04064 5.82834e-19)
(4.19199 2.50234 -8.86437e-19)
(2.7109 2.22387 4.26027e-18)
(2.77508 2.09855 -4.12152e-18)
(2.83749 1.98584 -3.85105e-18)
(2.90033 1.88557 -8.02663e-18)
(2.96665 1.79842 7.75095e-18)
(3.04048 1.72564 -7.4701e-18)
(3.12771 1.66911 0)
(3.2366 1.63255 -1.79953e-18)
(3.37651 1.62272 0)
(3.56771 1.65789 0)
(3.75439 1.80047 0)
(4.24605 2.22716 4.23753e-19)
(2.58181 2.15861 4.71436e-18)
(2.64574 2.02668 -9.42703e-18)
(2.70677 1.90753 9.17551e-18)
(2.76774 1.80016 8.8115e-18)
(2.83241 1.70421 4.26882e-18)
(2.90558 1.6197 0)
(2.99437 1.54628 0)
(3.10904 1.48506 4.21644e-18)
(3.26303 1.43836 0)
(3.48712 1.42116 -1.20055e-18)
(3.73813 1.48659 7.82221e-19)
(4.22922 1.79772 -1.24114e-18)
(2.43191 2.07397 -1.06746e-17)
(2.49687 1.94124 9.79925e-18)
(2.55657 1.81988 -9.53305e-18)
(2.61418 1.70846 -2.3908e-17)
(2.6737 1.60584 -2.32754e-19)
(2.74046 1.51097 1.2876e-19)
(2.82285 1.42112 -4.6342e-18)
(2.93134 1.33409 -4.26601e-18)
(3.08361 1.24559 0)
(3.31962 1.16471 3.65708e-18)
(3.60727 1.0994 8.98957e-19)
(4.09085 1.07417 -1.74671e-18)
(2.25725 1.95762 -4.79483e-19)
(2.32433 1.83329 0)
(2.38249 1.71695 0)
(2.43497 1.60698 4.66956e-18)
(2.48597 1.50219 1.42598e-17)
(2.54054 1.40106 -4.67061e-18)
(2.60852 1.29896 -2.11019e-19)
(2.69814 1.19074 -2.43792e-18)
(2.82982 1.06395 -2.28135e-18)
(3.03244 0.917152 -2.30339e-18)
(3.33157 0.690567 0)
(3.67821 -0.0208238 2.2899e-18)
(2.2239 -0.227203 3.39547e-22)
(1.93155 -0.252564 0)
(1.75378 -0.337201 -1.37823e-19)
(1.65999 -0.448052 0)
(1.58599 -0.569665 -7.87245e-19)
(1.65875 -0.675315 9.14423e-19)
(1.80477 -0.998917 0)
(1.55733 -1.86777 3.21675e-19)
(1.77573 -2.76846 -2.56735e-19)
(2.22927 -3.04018 6.37208e-20)
(2.37811 -3.32974 -6.94829e-19)
(2.52822 -3.60087 -5.99312e-19)
(2.75588 0.426668 -2.86291e-19)
(2.37379 0.23467 -1.34961e-19)
(2.3813 -0.0353401 5.55965e-19)
(2.45855 -0.378104 0)
(2.46344 -0.890633 -8.50074e-19)
(2.57554 -1.73717 4.02922e-19)
(2.89956 -2.47206 0)
(2.93023 -2.86668 8.05366e-19)
(2.99249 -3.03303 -3.55449e-18)
(3.01485 -3.07006 1.88249e-18)
(3.01623 -3.17256 1.31047e-18)
(2.99455 -3.29016 -3.53163e-18)
(3.03759 0.359348 -1.67827e-19)
(2.75835 -0.00137615 0)
(2.834 -0.535355 -1.73598e-18)
(2.94151 -1.20731 0)
(3.1155 -1.9366 0)
(3.1668 -2.47014 -8.04784e-19)
(3.1699 -2.8168 4.30741e-18)
(3.05616 -3.01866 -3.05428e-18)
(2.95866 -3.13466 9.22056e-19)
(2.87704 -3.20202 0)
(2.79869 -3.28788 2.5483e-18)
(2.71753 -3.37131 -1.46832e-18)
(3.32569 0.209064 9.02882e-19)
(3.20039 -0.28925 1.37976e-18)
(3.33059 -0.940342 1.20307e-18)
(3.41134 -1.61992 2.28054e-18)
(3.42477 -2.19378 -1.64455e-18)
(3.33701 -2.57095 -1.34712e-18)
(3.22478 -2.79759 0)
(3.08066 -2.95479 0)
(2.96245 -3.04399 1.94443e-18)
(2.86005 -3.10721 0)
(2.76313 -3.17528 4.08201e-19)
(2.66844 -3.2391 1.1872e-18)
(3.51077 -0.0409825 1.68442e-18)
(3.51994 -0.56729 -8.85911e-19)
(3.61531 -1.18759 -2.2275e-18)
(3.61343 -1.79277 0)
(3.52573 -2.24971 0)
(3.38326 -2.5341 3.20013e-18)
(3.23163 -2.71751 0)
(3.077 -2.83243 -4.71441e-18)
(2.93669 -2.9137 -1.94562e-18)
(2.81193 -2.98063 3.55894e-18)
(2.69656 -3.04714 -4.83981e-18)
(2.58801 -3.11249 3.07791e-18)
(3.66559 -0.267645 -1.83499e-18)
(3.75877 -0.78024 -1.29518e-18)
(3.80085 -1.33364 1.84562e-18)
(3.73219 -1.8441 3.03191e-19)
(3.58837 -2.20998 3.31542e-18)
(3.41302 -2.44157 -6.33539e-18)
(3.23583 -2.5952 5.62236e-18)
(3.06412 -2.70426 5.24009e-19)
(2.90763 -2.7877 0)
(2.767 -2.85904 0)
(2.63853 -2.92686 7.4742e-18)
(2.52 -2.99274 3.94746e-20)
(3.8251 -0.451743 -4.61034e-20)
(3.98159 -0.926982 -1.9266e-18)
(3.9641 -1.40226 0)
(3.8475 -1.82198 -3.93896e-18)
(3.66294 -2.12179 4.15985e-18)
(3.45763 -2.32201 1.00967e-17)
(3.25516 -2.46403 6.15346e-18)
(3.0644 -2.57204 7.403e-19)
(2.89047 -2.6598 -9.49976e-18)
(2.73367 -2.73652 4.16461e-18)
(2.59149 -2.8079 4.41852e-18)
(2.46181 -2.87602 2.28414e-19)
(4.01106 -0.610206 1.98705e-19)
(4.21439 -1.02095 3.11952e-18)
(4.13721 -1.41102 0)
(3.97981 -1.74971 -4.77908e-18)
(3.75877 -2.00175 -3.5056e-18)
(3.52247 -2.18521 5.74553e-19)
(3.29293 -2.32523 -1.13161e-17)
(3.07927 -2.43769 3.74879e-19)
(2.88505 -2.53211 -2.48756e-19)
(2.71033 -2.61502 4.75581e-18)
(2.55309 -2.69062 -3.82658e-18)
(2.41107 -2.76121 2.00252e-19)
(4.19055 -0.712819 -3.53574e-18)
(4.45643 -1.07422 1.60247e-18)
(4.31201 -1.37238 -8.10581e-18)
(4.11199 -1.63779 3.98521e-18)
(3.85697 -1.85504 0)
(3.59057 -2.03115 0)
(3.33439 -2.17559 6.36172e-18)
(3.09729 -2.29642 1.14623e-17)
(2.88239 -2.39957 -5.18127e-18)
(2.68965 -2.48966 -4.6652e-18)
(2.51725 -2.57006 -4.42781e-18)
(2.36272 -2.64326 0)
(4.47727 -0.811631 7.08411e-20)
(4.69306 -1.05412 4.42811e-18)
(4.44236 -1.25404 9.86302e-18)
(4.18138 -1.47253 0)
(3.89536 -1.67156 7.88853e-18)
(3.60705 -1.84738 0)
(3.3342 -2.00088 3.19378e-19)
(3.08282 -2.13376 -5.66414e-18)
(2.855 -2.24853 6.03394e-18)
(2.65061 -2.3482 0)
(2.46804 -2.43534 0)
(2.30481 -2.51261 -1.00932e-17)
(4.56901 -0.966254 -6.74032e-18)
(4.68779 -0.948368 3.30057e-18)
(4.35766 -1.04071 5.38236e-19)
(4.04393 -1.23063 -8.96041e-18)
(3.75723 -1.42577 -3.53521e-18)
(3.47937 -1.6118 -3.58969e-18)
(3.21956 -1.78156 -6.95036e-18)
(2.97954 -1.93208 -1.94864e-17)
(2.75993 -2.0632 -5.6573e-18)
(2.56078 -2.17672 -1.19153e-17)
(2.3813 -2.27431 1.14423e-17)
(2.21957 -2.35885 1.04243e-17)
(4.16912 -0.386821 3.57952e-18)
(4.10401 -0.566651 -1.42938e-18)
(3.79621 -0.700467 3.51207e-19)
(3.53577 -0.90284 7.49514e-18)
(3.33033 -1.12057 0)
(3.12798 -1.33001 -6.78151e-18)
(2.93141 -1.52163 6.08055e-18)
(2.74184 -1.69283 5.40721e-18)
(2.5613 -1.84274 -1.75099e-17)
(2.39198 -1.9728 1.08731e-17)
(2.23514 -2.08355 -1.05903e-17)
(2.09032 -2.17826 0)
(2.4695 -3.87355 -6.28029e-19)
(2.41854 -4.07876 1.53797e-18)
(2.26539 -4.22605 -1.07528e-18)
(2.1164 -4.30148 -4.73494e-19)
(1.91924 -4.31011 1.03355e-19)
(1.72053 -4.25064 4.8669e-20)
(1.50427 -4.11218 -1.1352e-19)
(1.29408 -3.89517 -2.78107e-19)
(1.07429 -3.59846 -9.15488e-19)
(0.826339 -3.19047 0)
(0.420826 -2.73947 0)
(-0.0998348 -2.61828 -6.25561e-19)
(2.96064 -3.40176 -3.70219e-20)
(2.88834 -3.51362 1.98966e-18)
(2.77923 -3.62564 -8.96186e-19)
(2.63547 -3.7269 0)
(2.46765 -3.80476 1.59508e-18)
(2.29575 -3.84129 0)
(2.12669 -3.82855 1.2279e-18)
(1.97485 -3.76194 2.17372e-18)
(1.85698 -3.63885 -1.86432e-18)
(1.74495 -3.36249 0)
(1.61802 -3.08621 0)
(1.16948 -3.20573 -1.96702e-20)
(2.6321 -3.4567 9.7759e-19)
(2.53926 -3.5401 -9.20675e-19)
(2.43715 -3.61946 1.0299e-18)
(2.3317 -3.68406 0)
(2.22604 -3.72694 -1.13256e-18)
(2.12729 -3.74076 2.92578e-18)
(2.04583 -3.72214 -4.22271e-18)
(1.99047 -3.67058 -4.86757e-18)
(1.96747 -3.59313 2.97932e-18)
(1.96232 -3.44433 0)
(1.95813 -3.20845 5.78591e-19)
(1.85654 -3.40502 1.47444e-19)
(2.57558 -3.3046 1.15741e-18)
(2.48213 -3.37222 -2.60873e-18)
(2.38655 -3.43734 2.63417e-18)
(2.29229 -3.49314 -2.62856e-18)
(2.20457 -3.53499 0)
(2.12972 -3.55952 1.55991e-18)
(2.07551 -3.56367 1.13635e-18)
(2.04953 -3.55098 6.84113e-19)
(2.05744 -3.51927 -1.48536e-18)
(2.12018 -3.44732 0)
(2.21392 -3.26054 -3.40929e-19)
(2.29675 -3.55292 5.57745e-19)
(2.48485 -3.17857 2.96812e-18)
(2.38568 -3.24388 -1.55236e-18)
(2.29078 -3.30546 0)
(2.20304 -3.36013 0)
(2.12668 -3.40592 1.5249e-18)
(2.06681 -3.44194 -1.27811e-18)
(2.03262 -3.4666 -2.27394e-19)
(2.0281 -3.48086 0)
(2.06522 -3.49107 -7.72262e-19)
(2.15823 -3.47862 1.01297e-18)
(2.31439 -3.35917 -1.03479e-18)
(2.53309 -3.76525 -2.54632e-19)
(2.40973 -3.05792 -6.42923e-18)
(2.30672 -3.12172 3.09473e-18)
(2.21145 -3.18278 6.27201e-18)
(2.12614 -3.23983 4.4979e-22)
(2.05425 -3.2924 -7.57294e-18)
(2.00037 -3.34071 -3.23526e-18)
(1.97065 -3.38626 -2.22606e-19)
(1.9718 -3.4312 0)
(2.01528 -3.47776 0)
(2.1172 -3.52913 -1.02292e-18)
(2.31596 -3.47461 -7.40155e-19)
(2.65553 -3.93329 2.23381e-19)
(2.34291 -2.94207 3.52911e-18)
(2.23383 -3.00624 -6.97591e-18)
(2.13477 -3.06845 -3.10979e-18)
(2.04724 -3.12885 -1.79343e-19)
(1.97388 -3.18833 3.02407e-18)
(1.91839 -3.24862 3.01429e-18)
(1.88581 -3.31252 1.71634e-18)
(1.8824 -3.38385 1.688e-18)
(1.91886 -3.46635 -1.88807e-18)
(2.01384 -3.5672 0)
(2.2104 -3.59062 1.19305e-18)
(2.63095 -4.08641 -3.44565e-19)
(2.28232 -2.82824 0)
(2.16549 -2.89273 3.54488e-18)
(2.06026 -2.95564 0)
(1.96734 -3.01829 -1.79411e-19)
(1.8884 -3.08273 1.15485e-21)
(1.82603 -3.152 7.14913e-18)
(1.7839 -3.23045 -6.96692e-18)
(1.76739 -3.32398 0)
(1.78598 -3.43874 -2.02501e-18)
(1.85933 -3.58778 1.14635e-18)
(2.0405 -3.69195 -2.23302e-18)
(2.50224 -4.19202 1.12769e-18)
(2.22379 -2.71105 4.2621e-18)
(2.09844 -2.77523 -4.12327e-18)
(1.9857 -2.83762 -4.17097e-18)
(1.88542 -2.90045 4.08708e-18)
(1.79825 -2.96676 3.88007e-18)
(1.72546 -3.04057 -1.14435e-17)
(1.66893 -3.12778 3.60653e-18)
(1.63237 -3.23665 0)
(1.62253 -3.37655 1.87237e-18)
(1.65773 -3.56775 0)
(1.80034 -3.75442 2.74734e-18)
(2.22709 -4.24607 -2.02098e-18)
(2.15857 -2.58197 0)
(2.02661 -2.6459 -9.43041e-18)
(1.90743 -2.70692 -4.88426e-18)
(1.80004 -2.76788 -8.55536e-18)
(1.70407 -2.83253 4.27024e-18)
(1.61955 -2.90568 4.05118e-18)
(1.54612 -2.99446 0)
(1.4849 -3.10911 0)
(1.43819 -3.26308 0)
(1.421 -3.48716 0)
(1.48646 -3.73816 -7.83469e-19)
(1.79765 -4.22925 -1.01334e-19)
(2.07396 -2.43207 5.20331e-18)
(1.94119 -2.49704 4.74961e-18)
(1.81981 -2.55673 1.96159e-17)
(1.70837 -2.61433 5.02843e-18)
(1.60573 -2.67383 1.90003e-17)
(1.51085 -2.74057 -4.59989e-18)
(1.42098 -2.82293 -4.63527e-18)
(1.33394 -2.93141 0)
(1.24543 -3.08365 -4.48689e-18)
(1.16455 -3.31965 -2.43029e-18)
(1.09927 -3.60729 -1.83076e-18)
(1.0741 -4.09084 -1.08809e-25)
(1.95761 -2.25742 0)
(1.83326 -2.32451 0)
(1.7169 -2.38266 -1.99879e-17)
(1.60691 -2.43512 -1.45206e-17)
(1.5021 -2.4861 -4.60241e-18)
(1.40096 -2.54065 0)
(1.29885 -2.6086 4.65845e-18)
(1.19062 -2.69819 0)
(1.06381 -2.82985 -1.933e-19)
(0.917003 -3.03245 2.30357e-18)
(0.690436 -3.33156 6.63698e-19)
(-0.0209029 -3.67821 4.53593e-18)
(-0.227376 -2.22393 1.07479e-19)
(-0.252724 -1.93164 2.04833e-19)
(-0.337597 -1.75418 -1.95332e-19)
(-0.448171 -1.66041 4.61282e-20)
(-0.570297 -1.58679 0)
(-0.675995 -1.66084 9.28931e-20)
(-1.00206 -1.8051 0)
(-1.87567 -1.55668 4.49182e-19)
(-2.77124 -1.78138 1.07069e-18)
(-3.03998 -2.23177 -1.88127e-20)
(-3.33122 -2.38078 -2.1115e-20)
(-3.60114 -2.52965 9.44328e-19)
(0.426371 -2.756 4.19777e-19)
(0.234127 -2.37405 -5.10754e-19)
(-0.0359482 -2.38224 5.43379e-19)
(-0.379539 -2.45992 -8.66479e-20)
(-0.894722 -2.4636 -8.5095e-19)
(-1.74172 -2.57842 -1.76253e-19)
(-2.47461 -2.90212 -8.85498e-19)
(-2.8665 -2.93114 -1.48601e-18)
(-3.03175 -2.99426 3.45568e-18)
(-3.06874 -3.01605 -6.82556e-19)
(-3.17202 -3.01757 7.8356e-19)
(-3.28959 -2.99556 4.80866e-19)
(0.358525 -3.0378 -3.3603e-19)
(-0.00328718 -2.75881 0)
(-0.538022 -2.83489 0)
(-1.21076 -2.94342 -1.27054e-18)
(-1.9389 -3.11696 0)
(-2.47103 -3.16788 -1.10582e-18)
(-2.8165 -3.17049 7.14963e-19)
(-3.01808 -3.05632 2.54027e-18)
(-3.13356 -2.95935 -1.13602e-18)
(-3.20104 -2.8777 -1.8551e-18)
(-3.28719 -2.79941 -3.56871e-18)
(-3.37074 -2.71823 3.45883e-18)
(0.207531 -3.32536 -1.80922e-18)
(-0.291552 -3.20084 -1.37955e-18)
(-0.942837 -3.33123 2.11946e-18)
(-1.62193 -3.41193 7.61822e-19)
(-2.1946 -3.42482 0)
(-2.57085 -3.33694 -4.5747e-18)
(-2.79691 -3.22467 3.80154e-18)
(-2.9539 -3.08069 0)
(-3.0429 -2.96276 2.9272e-18)
(-3.10628 -2.86047 -4.32142e-18)
(-3.17454 -2.7636 2.92299e-18)
(-3.23847 -2.66892 3.94646e-19)
(-0.0426692 -3.51033 2.52104e-18)
(-0.569485 -3.52 2.67442e-18)
(-1.18956 -3.61521 6.94039e-19)
(-1.79395 -3.61305 0)
(-2.24992 -3.52515 -2.84621e-18)
(-2.53373 -3.38276 5.04575e-18)
(-2.71673 -3.23129 0)
(-2.83159 -3.07682 -2.5605e-18)
(-2.91281 -2.93674 -2.32701e-18)
(-2.97987 -2.81214 3.55363e-18)
(-3.04652 -2.69685 0)
(-3.112 -2.58835 -2.7794e-18)
(-0.269334 -3.66498 1.47103e-18)
(-0.782072 -3.75854 5.80909e-19)
(-1.33508 -3.80026 -1.84324e-18)
(-1.8448 -3.7314 -8.00943e-18)
(-2.20996 -3.58754 -2.49899e-19)
(-2.44115 -3.41234 6.5804e-18)
(-2.59459 -3.23534 0)
(-2.7036 -3.06383 7.37291e-18)
(-2.78701 -2.90755 -4.31887e-18)
(-2.85844 -2.76708 3.82759e-18)
(-2.92635 -2.63871 2.41122e-19)
(-2.99233 -2.52024 -3.93731e-20)
(-0.453136 -3.82444 -1.52447e-18)
(-0.92839 -3.98116 -1.27516e-18)
(-1.40326 -3.96326 0)
(-1.82238 -3.84651 8.45062e-18)
(-2.12171 -3.66201 -1.17733e-17)
(-2.32166 -3.45686 -1.90944e-19)
(-2.46356 -3.25459 -1.17467e-17)
(-2.57153 -3.06403 4.47371e-19)
(-2.65928 -2.89029 -4.52122e-18)
(-2.73604 -2.73364 -4.45512e-18)
(-2.80749 -2.59157 4.413e-18)
(-2.87568 -2.46196 -3.66772e-18)
(-0.611164 -4.01043 -1.38448e-19)
(-1.02194 -4.21379 -1.66577e-18)
(-1.41168 -4.13626 0)
(-1.74998 -3.97876 4.77417e-18)
(-2.00169 -3.7578 3.30371e-18)
(-2.18497 -3.52165 2.90476e-18)
(-2.3249 -3.29231 -4.57158e-19)
(-2.4373 -3.07883 -1.00959e-19)
(-2.53172 -2.88478 -5.20047e-18)
(-2.61464 -2.7102 -5.25987e-19)
(-2.69028 -2.55307 2.12401e-19)
(-2.76091 -2.41113 0)
(-0.713211 -4.19 2.19651e-18)
(-1.07477 -4.45577 0)
(-1.3728 -4.31111 0)
(-1.63799 -4.11099 -3.9833e-18)
(-1.85504 -3.85602 3.47653e-18)
(-2.03101 -3.58975 -7.01166e-18)
(-2.17537 -3.33373 0)
(-2.29615 -3.09679 5.6096e-18)
(-2.39927 -2.88204 -2.29305e-19)
(-2.48936 -2.68944 4.66096e-18)
(-2.56977 -2.51714 -4.81644e-18)
(-2.64299 -2.36271 9.18791e-18)
(-0.811621 -4.4768 4.6094e-18)
(-1.05464 -4.69261 -1.5164e-18)
(-1.25438 -4.44169 -5.25023e-18)
(-1.47273 -4.18058 -8.83466e-18)
(-1.67163 -3.89457 0)
(-1.84735 -3.60634 6.49831e-18)
(-2.00078 -3.3336 -1.29833e-17)
(-2.1336 -3.08233 5.71967e-18)
(-2.24833 -2.85464 6.02957e-18)
(-2.34797 -2.65037 0)
(-2.43511 -2.4679 -5.61705e-18)
(-2.51238 -2.30474 -9.41463e-18)
(-0.96609 -4.56896 -6.69293e-18)
(-0.948479 -4.68761 1.50319e-18)
(-1.04091 -4.35732 4.52933e-18)
(-1.23082 -4.04347 3.81405e-18)
(-1.42592 -3.75674 -4.75801e-20)
(-1.61188 -3.4789 -1.10819e-17)
(-1.78158 -3.21914 1.32101e-17)
(-1.93204 -2.97918 2.56221e-17)
(-2.06311 -2.75964 -1.77822e-17)
(-2.17659 -2.56057 -1.19088e-17)
(-2.27415 -2.38116 1.07954e-17)
(-2.35868 -2.21949 0)
(-0.386726 -4.16916 5.53601e-18)
(-0.566752 -4.10413 1.8826e-18)
(-0.700666 -3.79625 2.02744e-18)
(-0.903063 -3.53571 8.04548e-18)
(-1.12079 -3.3302 0)
(-1.33018 -3.12781 6.42333e-18)
(-1.52175 -2.93124 -1.2785e-17)
(-1.6929 -2.74167 -5.65866e-18)
(-1.84276 -2.56116 -5.76551e-18)
(-1.97275 -2.39187 1.08709e-17)
(-2.08347 -2.23506 5.65306e-18)
(-2.17815 -2.09027 1.6142e-17)
(-3.87443 -2.47099 2.01128e-19)
(-4.07897 -2.41939 5.19121e-19)
(-4.22653 -2.2663 4.28752e-19)
(-4.30157 -2.11688 -1.07083e-18)
(-4.31045 -1.91974 3.49553e-19)
(-4.25069 -1.72073 0)
(-4.1124 -1.50449 -4.72019e-19)
(-3.8952 -1.29412 3.53828e-19)
(-3.59862 -1.07434 0)
(-3.19053 -0.826309 1.08461e-19)
(-2.73959 -0.420822 0)
(-2.61841 0.0995927 0)
(-3.40158 -2.96146 -3.90782e-18)
(-3.51346 -2.88891 2.86614e-18)
(-3.62563 -2.77966 2.11562e-18)
(-3.7269 -2.63578 -8.69494e-19)
(-3.80478 -2.46789 0)
(-3.8413 -2.29594 0)
(-3.82858 -2.12682 1.42206e-18)
(-3.76195 -1.97494 -1.54424e-18)
(-3.63887 -1.85702 0)
(-3.36249 -1.74495 5.79597e-19)
(-3.08623 -1.61804 -6.10467e-20)
(-3.20569 -1.16974 -1.05516e-18)
(-3.45631 -2.63275 1.4387e-18)
(-3.5398 -2.53982 -2.43107e-18)
(-3.61926 -2.43764 0)
(-3.68393 -2.3321 -2.52015e-18)
(-3.72686 -2.22634 -2.64382e-18)
(-3.74072 -2.12753 5.76662e-18)
(-3.72213 -2.04599 -5.15547e-18)
(-3.67058 -1.99058 0)
(-3.59313 -1.96752 0)
(-3.44432 -1.96233 0)
(-3.20845 -1.95814 -5.17463e-19)
(-3.4049 -1.85659 1.54835e-19)
(-3.30415 -2.57604 -1.15606e-18)
(-3.37192 -2.48254 -3.51316e-19)
(-3.43714 -2.38691 0)
(-3.49302 -2.29259 -3.28886e-19)
(-3.53493 -2.20482 0)
(-3.55949 -2.12991 0)
(-3.56366 -2.07564 1.28562e-18)
(-3.55097 -2.04962 -1.57191e-18)
(-3.51926 -2.0575 1.6288e-18)
(-3.44731 -2.1202 0)
(-3.26056 -2.21394 -5.24291e-19)
(-3.55285 -2.29686 -6.15146e-19)
(-3.17822 -2.4852 6.17851e-18)
(-3.24363 -2.38601 -1.55043e-18)
(-3.30529 -2.29108 2.80128e-18)
(-3.36002 -2.20331 1.26899e-18)
(-3.40585 -2.12691 -4.33363e-18)
(-3.4419 -2.067 0)
(-3.46658 -2.03276 -1.48057e-18)
(-3.48084 -2.0282 0)
(-3.49105 -2.06528 0)
(-3.4786 -2.15825 1.01254e-18)
(-3.35919 -2.3144 3.47549e-20)
(-3.76513 -2.53313 6.97182e-19)
(-3.05762 -2.41 -2.98904e-18)
(-3.1215 -2.30699 -2.22297e-19)
(-3.18261 -2.21171 0)
(-3.23971 -2.12638 0)
(-3.29232 -2.05446 -4.78677e-18)
(-3.34065 -2.00054 3.0337e-18)
(-3.38621 -1.97078 3.11728e-18)
(-3.43117 -1.9719 1.63799e-18)
(-3.47774 -2.01534 -3.91383e-18)
(-3.52909 -2.11723 -1.02261e-18)
(-3.47462 -2.31597 0)
(-3.93321 -2.65557 7.9821e-19)
(-2.9418 -2.3431 -7.23935e-18)
(-3.00603 -2.23403 2.99162e-18)
(-3.06829 -2.13497 3.30856e-18)
(-3.12872 -2.04744 1.78486e-19)
(-3.18824 -1.97407 -3.72622e-19)
(-3.24854 -1.91855 -3.40547e-18)
(-3.31245 -1.88594 -4.99336e-18)
(-3.3838 -1.88249 -1.80881e-18)
(-3.46631 -1.91891 1.74e-18)
(-3.56715 -2.01386 0)
(-3.59061 -2.21041 2.01823e-18)
(-4.0863 -2.63093 -5.11986e-19)
(-2.82799 -2.28243 7.52359e-18)
(-2.89252 -2.16563 -4.08218e-18)
(-2.95547 -2.06042 -3.79763e-18)
(-3.01815 -1.96751 -6.95349e-18)
(-3.08262 -1.88856 6.85773e-18)
(-3.1519 -1.82618 -1.78022e-19)
(-3.23037 -1.78402 1.04515e-17)
(-3.32392 -1.76748 1.67806e-18)
(-3.43869 -1.78603 2.02352e-18)
(-3.58773 -1.85936 0)
(-3.69193 -2.0405 -1.38794e-18)
(-4.19195 -2.5022 -6.64582e-19)
(-2.71082 -2.22383 0)
(-2.77502 -2.09852 3.94798e-18)
(-2.83745 -1.98582 3.84883e-18)
(-2.9003 -1.88555 -3.93889e-18)
(-2.96663 -1.79839 -1.4884e-19)
(-3.04046 -1.72559 -3.96685e-18)
(-3.12769 -1.66904 -3.60319e-18)
(-3.23658 -1.63245 0)
(-3.37649 -1.62258 -1.87099e-18)
(-3.56769 -1.65774 -1.17182e-18)
(-3.75438 -1.80033 4.49067e-18)
(-4.24602 -2.22703 -9.66363e-19)
(-2.58176 -2.15857 0)
(-2.64571 -2.02665 0)
(-2.70675 -1.9075 0)
(-2.76773 -1.80014 -1.3318e-17)
(-2.8324 -1.70419 8.50894e-18)
(-2.90557 -1.61967 8.24125e-18)
(-2.99437 -1.54623 0)
(-3.10904 -1.48498 -4.21392e-18)
(-3.26302 -1.43823 0)
(-3.4871 -1.42102 -2.44731e-18)
(-3.73812 -1.48644 -7.83206e-19)
(-4.22921 -1.79757 -1.24126e-18)
(-2.43189 -2.07393 0)
(-2.49687 -1.9412 0)
(-2.55657 -1.81986 1.0072e-17)
(-2.61418 -1.70845 1.40788e-17)
(-2.67371 -1.60583 3.84034e-19)
(-2.74047 -1.51095 4.72484e-18)
(-2.82286 -1.42108 -2.27267e-18)
(-2.93135 -1.33402 6.45362e-18)
(-3.08361 -1.24549 4.48342e-18)
(-3.31961 -1.16457 2.26836e-18)
(-3.60725 -1.09925 -1.83013e-18)
(-4.09084 -1.07402 -1.91874e-18)
(-2.25728 -1.9576 0)
(-2.32437 -1.83327 0)
(-2.38252 -1.71695 -9.75921e-18)
(-2.435 -1.60697 5.11958e-18)
(-2.48599 -1.50219 -4.60054e-18)
(-2.54056 -1.40104 -4.66929e-18)
(-2.60855 -1.29893 4.86743e-18)
(-2.69817 -1.19069 0)
(-2.82985 -1.06386 -4.48895e-18)
(-3.03247 -0.91704 -2.39153e-18)
(-3.33157 -0.690421 2.28819e-18)
(-3.67821 0.0209613 -4.54638e-18)
(-2.22391 0.227157 1.06344e-19)
(-1.93154 0.252523 0)
(-1.75373 0.337192 0)
(-1.65995 0.448036 6.7783e-19)
(-1.58596 0.569691 -8.2812e-19)
(-1.65881 0.675323 0)
(-1.80478 0.99915 0)
(-1.55721 1.86863 4.46716e-19)
(-1.77637 2.76905 1.00973e-18)
(-2.22969 3.04048 7.5868e-19)
(-2.37861 3.33027 -7.12979e-19)
(-2.52863 3.60129 7.7906e-19)
(-2.75589 -0.42673 -5.77524e-19)
(-2.37376 -0.234721 0)
(-2.38124 0.0353363 0)
(-2.45848 0.378171 -1.18478e-18)
(-2.46341 0.890858 1.7126e-18)
(-2.5757 1.73758 -1.60846e-18)
(-2.89981 2.47259 7.6394e-19)
(-2.93038 2.86705 6.95559e-19)
(-2.99277 3.03329 -5.13951e-19)
(-3.01516 3.07027 7.18264e-19)
(-3.0166 3.17284 0)
(-2.99492 3.29041 -1.48339e-18)
(-3.03761 -0.359465 3.35473e-19)
(-2.7583 0.00125565 0)
(-2.83392 0.535338 0)
(-2.94144 1.20745 -7.84716e-19)
(-3.11548 1.93695 5.13911e-19)
(-3.16685 2.47064 -1.42351e-18)
(-3.16998 2.8173 0)
(-3.05623 3.0191 -3.41355e-18)
(-2.95882 3.13499 3.43512e-18)
(-2.87724 3.20231 -1.01694e-18)
(-2.79892 3.28818 -2.50158e-18)
(-2.71778 3.37159 3.4613e-18)
(-3.32576 -0.209244 -9.02588e-19)
(-3.20032 0.289134 1.37966e-18)
(-3.33053 0.940421 0)
(-3.41131 1.62024 7.61614e-19)
(-3.42477 2.1943 -6.39999e-19)
(-3.33702 2.57151 1.34658e-18)
(-3.22481 2.79806 0)
(-3.08072 2.9552 -2.06974e-18)
(-2.96257 3.04431 -4.875e-18)
(-2.86021 3.10749 3.01873e-18)
(-2.76332 3.17554 2.92673e-18)
(-2.66866 3.23932 -5.88359e-18)
(-3.51085 0.0407948 1.2553e-18)
(-3.51991 0.567214 -1.10228e-18)
(-3.61529 1.18775 2.22722e-18)
(-3.61342 1.79319 0)
(-3.52572 2.25026 -5.97971e-18)
(-3.38325 2.53462 5.88033e-18)
(-3.23163 2.71796 2.74398e-18)
(-3.07702 2.8328 2.00345e-18)
(-2.93675 2.914 0)
(-2.81203 2.98088 0)
(-2.69669 3.04735 0)
(-2.58817 3.11267 -6.1065e-19)
(-3.66567 0.267457 3.67178e-18)
(-3.75875 0.780204 0)
(-3.80084 1.33384 -1.84544e-18)
(-3.73216 1.84454 4.16e-18)
(-3.58831 2.21051 3.2913e-18)
(-3.41295 2.44206 -6.29374e-18)
(-3.23577 2.59561 2.8875e-18)
(-3.06408 2.70459 -1.00961e-17)
(-2.90763 2.78795 -1.25129e-19)
(-2.76703 2.85925 -3.49103e-19)
(-2.63859 2.92702 2.41509e-19)
(-2.5201 2.99286 1.00772e-17)
(-3.82517 0.451563 -5.42151e-18)
(-3.98158 0.926974 3.48127e-18)
(-3.9641 1.40249 -5.38927e-18)
(-3.84744 1.82239 -3.93865e-18)
(-3.66283 2.12226 -7.38937e-18)
(-3.45749 2.32244 -3.90259e-18)
(-3.25502 2.46438 -5.81806e-18)
(-3.06428 2.57232 9.68868e-18)
(-2.89039 2.66001 0)
(-2.73362 2.73667 8.37407e-18)
(-2.59149 2.80801 -1.17242e-17)
(-2.46184 2.87609 3.92043e-18)
(-4.01112 0.610072 -2.93727e-18)
(-4.2144 1.02096 -4.95302e-18)
(-4.13722 1.41123 7.33268e-18)
(-3.97974 1.75008 0)
(-3.75863 2.00215 -4.07512e-18)
(-3.52227 2.18558 6.16047e-18)
(-3.29273 2.32553 -2.93377e-19)
(-3.07908 2.43791 1.01147e-19)
(-2.88489 2.53228 -4.84279e-18)
(-2.71021 2.61512 -9.03026e-18)
(-2.55301 2.69068 4.02e-18)
(-2.41103 2.76123 -4.03975e-18)
(-4.19062 0.712687 2.19767e-18)
(-4.45648 1.07427 0)
(-4.31203 1.37259 0)
(-4.11193 1.63809 0)
(-3.85682 1.85537 3.47964e-18)
(-3.59036 2.03145 0)
(-3.33415 2.17584 -3.78513e-19)
(-3.09706 2.29661 1.11643e-17)
(-2.88218 2.3997 2.52484e-19)
(-2.68948 2.48973 4.66567e-18)
(-2.51711 2.57008 -4.64342e-18)
(-2.36264 2.64323 1.36181e-17)
(-4.47738 0.811619 7.08484e-20)
(-4.69315 1.05418 8.03983e-18)
(-4.44241 1.25421 -2.41747e-18)
(-4.18136 1.47278 0)
(-3.89525 1.67183 0)
(-3.60688 1.84764 0)
(-3.33399 2.00111 0)
(-3.08259 2.13393 5.96965e-18)
(-2.85479 2.24864 -2.2652e-17)
(-2.65042 2.34825 -1.10409e-17)
(-2.46789 2.43534 1.05269e-17)
(-2.30469 2.51256 5.56241e-18)
(-4.56908 0.966245 -6.6922e-18)
(-4.68787 0.948437 -4.57099e-18)
(-4.35773 1.04085 -2.70035e-18)
(-4.04397 1.23083 0)
(-3.7572 1.42602 0)
(-3.47928 1.61204 7.45129e-18)
(-3.21942 1.78178 -1.36976e-17)
(-2.97938 1.93225 2.5856e-17)
(-2.75976 2.06331 1.81223e-17)
(-2.56061 2.17678 1.12326e-17)
(-2.38115 2.2743 -1.08021e-17)
(-2.21945 2.35879 6.07786e-19)
(-4.16922 0.386908 -1.87111e-18)
(-4.10413 0.566781 0)
(-3.79635 0.70063 3.88611e-18)
(-3.5359 0.903051 -1.19624e-17)
(-3.33042 1.12082 1.08681e-17)