/*--------------------------------*- C++ -*----------------------------------*\
| =========                 |                                                 |
| \\      /  F ield         | OpenFOAM: The Open Source CFD Toolbox           |
|  \\    /   O peration     | Version:  4.0                                   |
|   \\  /    A nd           | Web:      www.OpenFOAM.org                      |
|    \\/     M anipulation  |                                                 |
\*---------------------------------------------------------------------------*/
FoamFile
{
    version     2.0;
    format      ascii;
    class       volScalarField;
    location    "29";
    object      p;
}
// * * * * * * * * * * * * * * * * * * * * * * * * * * * * * * * * * * * * * //

dimensions      [0 2 -2 0 0 0 0];

internalField   nonuniform List<scalar> 
146404
(
-3.14586
-1.04677
-2.43022
0.958128
-6.33618
-4.01017
-1.50225
5.55725
5.01652
-9.71095
-0.567874
0.830779
3.66567
-5.6127
-4.06058
-1.53691
-1.85821
-2.71204
-2.11796
-1.35341
0.194148
-5.09616
-4.29509
-1.91117
2.03114
-0.285805
-4.78356
-5.16087
-3.0512
5.72709
-1.87217
-10.4841
-6.80023
-2.23189
6.82174
0.765896
-8.08484
-5.6437
-1.79529
11.8147
11.8285
-14.0976
-2.27225
10.0889
1.74782
-7.93786
-5.84828
-2.70664
8.93694
3.31973
-3.17707
-4.52151
-2.75734
7.99443
4.69313
-2.27929
-3.88648
-2.22508
6.07368
5.58447
-2.34542
-2.56387
-1.30613
6.21533
-2.91433
-0.823424
5.73527
-0.0892872
-9.44592
-6.35939
-2.84848
8.90092
-1.88637
-13.4455
-7.72717
-2.60483
11.2049
-3.31769
-17.9287
-11.6275
-3.55618
13.8734
-0.190939
-14.7338
-9.50471
-3.56021
20.0823
8.43441
-21.8815
-4.08183
17.3866
-2.10008
-17.2117
-9.96136
-4.06925
21.4699
0.756458
-14.6118
-7.61458
-3.59051
15.9959
4.79373
-7.97732
-6.62602
-2.86516
13.3449
4.55566
-6.13623
-5.12309
-1.72877
13.0412
7.25862
-9.29876
-0.176598
8.17066
-2.57059
-2.32046
-0.575572
2.2412
-0.339773
-6.3201
-4.25127
-1.55273
8.26294
1.45685
-11.9565
-6.0206
-1.31585
14.4909
4.66052
-18.8252
-5.73138
-3.19248
19.0728
-5.02165
-19.943
-11.7266
-3.2806
28.1136
-18.991
-26.7767
-18.5314
-5.6148
41.3715
-27.9746
-32.1164
-19.6822
-7.97908
49.3637
17.9219
-33.4974
-8.89192
41.7974
-23.407
-41.3681
-22.5496
-6.96033
28.56
-15.5865
-39.8009
-21.6613
-4.18872
29.0804
2.30555
-20.8399
-13.3643
-4.63458
23.1221
11.29
-17.5169
-8.98509
-1.26852
15.3582
6.99842
-7.24834
-5.33037
-1.80985
9.74069
6.72049
-0.936832
-2.51692
-1.46734
7.4059
1.32412
-0.734096
-0.748328
0.233808
-0.998339
-4.7806
-4.45012
-2.58987
6.47772
-2.74146
-11.6637
-6.36409
-2.1254
11.8676
-2.47138
-15.6069
-10.0785
-3.28282
31.4785
0.286915
-33.7946
-12.465
-5.29441
60.3561
-19.3535
-54.4035
-26.1564
-6.31591
104.834
-132.528
-86.5026
-32.5662
-8.39721
112.645
-170.638
-102.28
-32.401
-12.6328
137.283
-159.822
-30.5237
-17.492
114.937
-184.005
-116.858
-36.7908
-13.3304
92.2456
-134.646
-91.3788
-38.0823
-12.2736
59.8322
-7.46545
-64.551
-35.4853
-8.43984
37.4963
12.1446
-36.4679
-19.1261
-5.78879
20.2738
5.39858
-11.8837
-7.37047
-2.64119
14.6173
4.76834
-4.02477
-3.27721
-1.58158
8.67402
7.30809
0.219714
-1.77904
-1.47277
-2.60971
-0.588501
-5.67677
-3.40569
-1.6499
5.17668
-3.18927
-8.20196
-5.40924
-2.12381
10.2565
-5.01139
-18.8531
-9.47052
-2.99938
21.9781
-13.6307
-35.5877
-13.6923
-3.20033
63.5916
-137.682
-59.9944
-23.6211
-5.97275
138.874
-165.352
-102.368
-31.9694
-7.99577
312.666
436.845
-33.1702
-9.0355
383.028
435.022
436.097
411.444
385.725
431.696
435.353
432.138
302.853
373.18
431.665
435.044
423.172
306.426
428.489
-38.7967
-10.6401
174.115
-39.4198
-11.1918
63.0592
-51.7746
-84.2894
-25.9734
-4.80544
26.727
4.25098
-25.1868
-13.7652
-4.2444
19.1117
7.9593
-10.9324
-7.60272
-2.47424
13.5732
6.10948
-2.19875
-3.39748
-1.7591
7.31497
7.25359
-0.931782
-1.55337
-0.761279
4.7419
1.18791
-10.4324
-2.46559
-0.506997
7.89375
-1.83283
-12.8133
-7.13868
-1.06775
16.2296
-6.41143
-21.3612
-11.4431
-3.39882
46.5167
-59.3446
-51.0827
-20.0208
-5.4572
142.292
-136.781
-92.8871
-30.7332
-8.32126
376.605
438.432
438.206
-8.80207
413.792
431.239
434.003
404.282
288.809
415.246
427.505
431.702
439.97
316.931
413.882
426.199
432.192
423.411
273.093
409.601
425.701
430.549
413.858
320.091
390.548
426.096
431.653
399.056
282.558
345.68
431.694
433.937
426.131
-9.60207
172.738
-84.622
-122.56
-38.772
-11.7993
43.3696
-25.9976
-47.6459
-25.2772
-7.38291
26.8116
8.31637
-17.8608
-12.9723
-1.88741
17.5713
9.39415
-8.51135
-6.43242
-0.765594
12.9904
8.70924
-6.7492
-1.86462
-0.654589
4.25506
-1.00083
-10.189
-4.75725
-1.9037
11.3435
3.71411
-16.419
-7.23757
-3.03936
30.7417
-19.1809
-5.7121
80.9068
-86.0708
-70.9396
-29.5186
-9.80487
305.939
-85.7649
-25.7343
-8.94447
414.606
431.804
436.331
390.253
267.891
418.816
428.628
435.461
371.948
257.321
417.291
425.645
434.085
435.017
291.81
415.918
423.427
430.098
434.431
209.666
414.423
423.555
432.001
457.401
331.351
408.867
423.929
431.35
350.559
310.866
385.903
426.18
427.727
430.314
297
301.152
426.791
432.92
-37.0928
-13.073
80.2587
-70.4047
-96.3929
-39.2894
-10.3871
36.3547
71.4655
-40.3241
-4.52441
19.7205
12.7293
-15.1499
-8.12792
-1.75047
12.4172
6.78841
-4.96209
-3.32218
-1.61837
7.87658
-1.64041
-1.09802
-0.854316
-0.559345
-3.96367
-3.02345
-2.08658
4.95722
-2.85771
-10.6897
-5.4263
-1.73154
11.218
-3.96837
-19.7631
-11.7251
-3.03728
33.7043
-22.2744
-30.7153
-19.5009
-6.09461
92.8831
-172.121
-104.263
-29.0559
-9.00651
380.775
437.054
437.781
438.746
-7.63938
418.031
430.627
434.853
389.807
255.956
418.917
427.39
433.819
461.861
220.535
418.296
424.641
422.774
300.975
246.017
413.614
421.593
413.78
344.198
244.122
414.425
420.87
417.579
297.315
238.521
412.467
422.683
430.228
443.896
174.955
398.66
422.774
427.595
410.632
240.133
345.098
430.611
433.725
383.861
297.559
118.201
-133.563
-102.708
-41.5562
-14.5857
27.5806
-1.17194
-29.4466
-11.1803
-3.21154
18.9015
4.82817
-9.31387
-7.00101
-2.23091
13.1009
6.83203
-3.59467
-3.99942
-2.02093
6.01222
6.74437
1.11895
-1.39622
-1.8331
-7.18681
-1.20803
-3.53586
-4.2335
-2.20861
4.98025
-2.90239
-10.6902
-5.43218
-1.82453
11.1772
-4.33186
-20.0113
-11.9949
-3.31793
33.4503
-27.9746
-31.6864
-20.2793
-6.64196
116.226
-105.982
-109.547
-32.8113
-6.97843
387.113
437.331
437.836
421.231
418.553
431.227
435.268
440.551
319.891
420.005
428.261
442.206
452.943
216.288
417.3
425.806
418.137
331.98
258.956
412.372
420.664
406.791
349.305
256.501
411.561
420.934
415.432
341.432
251.432
413.989
423.668
429.028
462.902
218.497
402.378
423.856
429.135
442.698
244.631
352.781
430.251
433.158
412.028
313.908
136.448
-92.3975
-106.301
-39.9423
-11.9177
25.4484
-0.565079
-25.0433
-11.3078
-2.80777
19.6467
4.47388
-11.0085
-6.75839
-2.13935
13.3874
6.51581
-3.97367
-4.14479
-1.987
6.01194
6.39817
0.602281
-2.59279
-1.49088
-0.621713
-3.71015
-2.86572
-2.30157
3.48732
-0.398819
-7.78414
-5.51552
-1.9793
10.9793
-0.390558
-15.3649
-10.2581
-3.25314
36.5689
-11.9591
-31.0186
-19.5946
-6.5948
115.377
-181.623
-92.6784
-35.3596
-9.91208
373.915
437.764
438.007
413.656
-8.51364
416.197
431.846
434.883
424.354
262.712
420.697
429.825
438.922
443.3
221.313
420.27
427.242
429.017
322.197
240.103
417.624
424.597
419.263
339.406
258.994
417.914
424.403
426.165
331.81
251.42
413.28
426.272
434.067
442.738
142.086
399.421
427.604
430.501
348.49
259.536
336.245
435.18
433.886
427.887
314.3
100.478
-125.187
-122.881
-40.9631
-10.8383
34.8731
2.38102
-30.0597
-17.7039
-4.57213
19.2507
8.02392
-10.2422
-8.30472
-1.85834
11.4331
6.4152
-3.35831
-3.94839
-2.21793
5.41998
6.70467
0.336603
-1.49703
-1.9628
5.6912
1.13938
-9.83155
-4.43331
-1.46241
12.3492
2.88951
-16.5508
-3.05926
-1.61229
28.1735
-11.439
-3.50242
70.9569
-68.5088
-76.727
-30.3036
-9.25342
288.379
-98.964
-37.3046
-11.6856
397.616
434.28
435.911
440.311
284.479
416.727
431.079
436.1
430.799
219.336
419.227
429.588
434.578
446.112
329.691
418.839
430.702
448.911
448.077
235.466
415.528
428.424
434.485
433.772
252.709
408.882
428.084
432.083
369.484
249.152
385.116
432.85
431.978
367.853
288.715
291.305
430.734
435.682
-37.4087
-12.5421
63.571
-79.5067
-75.5048
-35.3927
-6.01996
27.6567
19.2216
-36.293
-1.38837
16.8252
12.7842
-17.8545
-11.6397
-1.19749
11.0596
9.38891
-6.99366
-5.75933
-0.778843
6.4084
-3.05312
-2.37292
-1.35983
2.45553
-1.65907
-12.3085
-4.62147
-1.68914
6.06194
-2.97815
-10.5325
-6.99104
-2.35653
12.373
-5.07776
-20.4989
-11.0437
-3.61582
36.1064
-33.4423
-38.9668
-16.4153
-4.01977
133.849
-115.15
-105.797
-36.2622
-11.4743
333.011
441.18
440.907
-12.2296
393.342
435.551
435.85
431.954
257.706
406.391
431.351
435.147
447.312
244.811
408.466
431.28
440.082
357.005
159.975
403.662
430.5
434.099
444.492
255.193
385.377
433.938
432.318
404.246
280.352
338.349
436.418
435.898
341.314
-10.5378
95.7263
-169.306
-85.1142
-31.9875
-4.41298
17.1616
-4.88345
-23.3914
-12.2732
-4.20778
11.2692
-1.33519
-16.0554
-10.4739
-2.35055
10.0361
0.560314
-8.51419
-5.83497
-1.87948
7.76226
4.09329
-9.46934
-2.5481
-0.557509
-5.34057
-1.63104
-6.21142
-3.6648
-2.02739
1.91866
-2.1703
-6.49678
-5.34523
-2.52609
6.97441
-2.52753
-12.8608
-7.53339
-2.52268
18.3877
-6.28146
-19.9017
-13.0784
-4.28052
48.6152
-40.4161
-47.7705
-25.3967
-4.65317
111.393
-150.689
-81.2081
-38.992
-11.7817
281.622
438.549
-96.8983
-36.105
-10.9827
353.372
438.069
439.193
395.735
361.849
437.917
439.805
405.461
318.963
352.743
437.613
437.847
425.21
284.124
435.49
-26.1783
-9.99398
94.6145
-31.0703
-7.5276
37.8804
-23.905
-39.4325
-21.1716
-4.59791
11.3584
-1.61992
-13.5727
-8.00197
-2.79339
6.60152
-0.887599
-7.34792
-4.42062
-1.69696
4.9899
1.03106
-4.35618
-3.72876
-1.87157
1.58296
2.06432
-3.88139
-3.08216
-1.03899
-1.79038
-1.01953
-4.75831
-4.36705
-2.37302
3.26592
-1.11783
-7.93632
-4.87152
-1.8496
9.46529
-1.23765
-13.089
-8.0116
-1.89711
24.0654
2.98504
-30.4926
-15.8021
-2.71502
38.2145
-16.7981
-37.0766
-18.6039
-3.95696
54.9509
-95.9271
-64.6443
-22.9855
-6.03182
70.6854
-160.059
-64.9256
-24.8443
-7.5957
77.8437
-203.872
-25.4472
-8.54776
71.907
-164.653
-68.2993
-22.6648
-6.127
50.3188
-73.7112
-58.0216
-21.3903
-5.41813
33.5994
-15.1188
-44.4199
-24.5779
-3.88974
20.4436
1.65122
-31.2855
-15.3223
-1.27438
10.125
0.883608
-11.1555
-7.98081
-2.0477
5.24996
0.50423
-5.96594
-4.68296
-2.15858
1.90319
1.37835
-3.27655
-3.52809
-1.96276
0.699982
-0.85473
-6.66608
-4.35002
-1.84895
6.97282
0.671548
-12.0927
-6.099
-1.64215
10.0719
0.89164
-17.2991
-4.75759
-2.55236
9.56278
-2.57012
-14.5973
-7.9786
-2.87197
11.7679
-5.25887
-19.5516
-10.9785
-3.18487
25.6041
-9.32965
-26.4222
-17.2174
-3.42929
31.364
-17.7683
-22.8377
-3.79257
13.8885
-12.1827
-27.2588
-9.77545
-3.31645
10.416
-3.24799
-15.8228
-9.09431
-3.18233
12.309
-2.0269
-15.6526
-11.1005
-2.85637
10.5199
3.51177
-18.0946
-10.4792
-1.40661
7.30784
3.62461
-11.4254
-4.99053
-1.01149
2.79545
1.81016
-4.63408
-4.18544
-1.92267
1.75914
-2.40133
-2.53462
-1.86662
3.53879
0.534674
-0.813477
3.26041
-0.527497
-7.80064
-5.77778
-1.95131
5.4232
-1.00463
-8.32353
-6.12996
-2.68315
5.85499
-2.42198
-10.5433
-5.59046
-1.82107
9.57617
-0.689896
-12.2532
-8.5711
-1.48002
13.7506
-1.91365
-12.5022
-1.90831
7.03008
-2.89754
-11.9144
-5.06637
-2.05621
7.64722
-1.49903
-8.16944
-4.9176
-1.88229
4.60873
-1.10966
-8.17263
-6.03299
-2.59152
3.67693
0.0306376
-8.45986
-5.67839
-2.26443
5.16922
8.23259
-14.6515
-8.3694
-0.864869
-6.35839
-2.54437
-1.23451
-3.60428
-0.379193
-5.33892
-3.34843
-1.4706
-0.272274
-0.447426
-4.46157
-4.15997
-2.09478
1.74827
-0.132111
-5.64855
-4.16941
-2.26957
3.96219
0.324339
-7.38017
-5.29045
-2.14665
7.89978
-1.85598
-6.41508
-1.07443
3.93465
-1.30846
-7.88979
-5.31191
-2.11087
1.19805
-0.66434
-5.45714
-4.41483
-1.97918
-0.00622088
-0.245397
-5.13614
-4.60577
-2.34293
-1.91821
0.126983
-5.1898
-3.94828
-1.71232
-4.43244
0.921137
-5.21689
-4.0712
-2.13688
-0.943258
-2.98148
-1.93479
-0.535369
-3.72193
0.426315
-7.1954
-4.08567
-1.6564
-3.15967
-1.68442
-3.92604
-4.85688
-4.87702
-4.07405
-2.25038
-1.85933
-0.0264657
0.600177
9.48418
-4.57001
-2.05411
-11.8906
-5.29452
-4.99427
-12.4941
-6.65475
-4.0819
-2.02924
-6.09145
-0.833143
-1.63972
-0.0173372
-0.705066
0.121186
0.907586
19.6625
6.17972
4.66423
4.61955
-4.67999
-5.59284
-5.13065
-12.528
-0.650582
-3.78118
-1.65872
-0.592534
0.218022
-1.29098
-0.0928397
5.12229
3.89492
-3.94542
-5.05044
-4.95685
-3.7752
-1.75492
-1.48425
-0.104842
0.938135
0.263136
-3.92809
-4.40796
-4.55535
-3.78514
-2.12796
-1.86746
0.0332508
-5.22189
0.855835
-0.984475
0.979642
0.138309
-3.85366
0.242053
-2.85292
-4.36882
-4.42471
-4.14165
-4.85256
-3.65754
-2.17421
-4.3551
-3.091
-1.91004
-0.0235496
-2.41468
-0.340262
-0.346396
1.07342
1.55707
1.2951
0.31927
-2.92954
0.212124
-3.17094
-4.18276
-4.83765
-4.79661
-5.46568
-4.36483
-3.37139
-4.94984
-3.65865
-2.65731
-0.441457
-2.827
-0.388184
-2.9788
1.43524
1.86484
1.71645
3.17629
2.53629
0.825849
-3.93457
0.347745
-2.22979
0.530982
-3.18907
-4.7587
-5.33706
-5.19286
-5.45165
-5.91726
-6.6892
-6.74369
-3.15575
-3.56245
-2.16632
-4.72089
-3.67986
-5.1957
-4.00962
-1.62454
-0.266055
-2.3593
-0.873809
-2.45259
-0.966671
1.77585
4.68416
9.60892
4.79539
4.10407
7.75284
10.0411
-5.00154
1.46169
-12.2889
0.91746
-4.03354
-1.62649
-14.948
-5.51017
-12.6353
-8.29639
-6.92421
-6.54825
-15.9438
-10.5684
-2.10741
-2.99591
-1.04011
-4.47181
-3.59844
-3.63751
-0.819877
-0.259303
-0.721262
-0.157367
-2.16331
-0.797931
0.124281
-0.274652
14.7993
1.24112
6.44932
9.91883
19.3312
8.09037
7.60043
4.31218
-4.17626
10.8493
4.37342
-4.12457
-6.00607
-5.46233
-11.0649
-5.90455
-7.21852
-0.757221
-3.4359
-1.90806
-13.2148
-2.4418
-5.73947
-3.21335
-0.017782
-1.31136
-0.437304
-0.932454
-0.422489
-2.36881
-0.937185
5.19748
5.18828
7.06729
6.14512
6.42786
5.77349
-3.77311
4.4922
-1.50163
3.1973
-2.33321
3.22338
-0.654581
-5.99551
-2.29135
-3.27844
-6.36691
-6.96697
-3.6684
-4.48764
-2.12599
-2.91324
-2.08751
-5.02473
-3.5068
-4.27595
-3.40522
-0.353704
-1.93368
-0.11103
-2.30389
-0.894872
-2.09818
-0.928979
6.74633
6.19483
6.09255
6.70782
-1.00414
4.21131
0.974489
5.2394
0.528261
-2.90827
-2.25519
-4.01187
-1.38601
-3.45082
-2.10324
-4.06636
-3.50336
-3.47459
-2.74402
-0.0930646
-2.21996
-0.851513
-2.01709
-0.424899
5.81591
6.67319
4.21134
6.5683
5.31477
0.581555
5.66705
0.340253
-1.23728
-3.13385
-1.4108
-2.47403
-3.02036
-2.45557
-1.81091
-1.90364
-1.99596
-0.388126
-1.42815
-0.325023
3.5516
6.54942
5.63327
-0.59975
-1.46116
-2.6901
-2.23165
-1.85865
-1.52954
-0.209758
2.15401
23.4842
-0.982667
-0.541107
-0.58212
-0.00187575
-3.44042
1.13263
3.5157
8.1628
3.01149
3.35716
0.406535
-4.43355
-3.08452
-0.0546758
-5.99153
-5.41683
-4.9673
-9.90385
-8.57685
-7.817
-3.62805
-2.26486
0.640552
-1.60654
-4.32172
-2.62369
-1.84915
-0.263579
-1.12871
-0.232818
-1.5782
-0.570995
1.35886
1.05946
1.38828
2.93238
2.94611
3.65
2.53501
-3.87458
-0.108944
-2.58553
-0.264192
-4.73073
-0.454859
-4.16836
-5.26721
-4.93775
-5.56803
-7.49796
-7.56616
-6.8974
-6.93089
-2.51228
-4.80406
-3.84846
-5.60645
-3.98141
-5.66194
-4.48723
-0.350442
-2.31231
-0.903623
-2.2572
-0.961949
-2.744
-1.09296
-4.89917
-1.2107
-15.4416
0.366467
-7.57245
5.40817
-21.468
-7.56342
-16.2919
-11.2638
-11.0296
-9.756
-22.0986
-17.2079
4.29182
-5.01139
8.20933
4.40232
-9.55148
-12.1409
-6.62214
-8.12139
-18.4774
-11.562
-10.9171
7.69294
6.38299
7.41984
11.5689
8.98881
10.3115
9.26613
7.59526
10.0223
9.52711
11.1883
13.1881
-0.457244
5.125
-1.41363
8.62817
-7.93332
-3.3289
-5.19366
-5.64051
-8.93725
-6.09096
-1.75274
-3.92915
-2.69893
-2.35093
-2.15437
-0.245147
-1.61747
-0.679926
-1.12839
-0.340813
11.1211
16.2687
10.8582
-9.87504
8.31536
-2.68732
-10.4348
-7.48884
-4.11029
-3.81817
-5.59324
-0.498687
-2.4812
-0.591298
-0.457558
-0.137445
-0.339094
0.111724
-0.796144
1.31158
0.0394864
-3.94207
-5.29377
-5.08154
-3.90769
-2.45709
-1.74607
-0.226788
3.80851
10.3176
0.757501
1.87779
4.41391
4.31134
31.8717
-0.110857
-3.94771
1.09226
-8.25135
-26.6455
-6.31079
-6.10063
-9.64073
-7.12474
1.74473
-1.15398
-3.65216
-2.30063
-3.54505
-2.3002
-0.773293
-0.207848
-1.38727
-0.51263
-1.54731
-0.797809
1.08212
-8.7138
2.14985
-10.9163
3.41311
-19.2332
-9.98572
-8.6631
-12.1972
-7.51326
-18.303
-13.5292
-11.1136
5.22236
-23.1799
-5.84798
-19.8173
-0.749385
-41.205
-12.8692
-23.5166
-19.074
-21.7943
-18.8438
-35.6477
-30.6498
3.67837
-12.9172
14.2963
-0.356834
-27.097
-20.1071
-14.6484
-13.808
-31.6371
-28.5236
-22.1917
-4.08402
9.55467
-8.98247
10.1432
-11.5928
13.1187
-9.5595
-7.14446
-9.68201
-7.03213
-14.1364
-12.4655
-10.7921
-9.03326
18.4246
5.14791
10.2811
14.0138
14.6761
11.0441
11.06
8.13916
-2.21168
10.5599
-5.20807
7.37305
0.888302
-7.887
-4.64236
-3.98008
-8.72508
-8.09067
-3.8399
-4.79214
-0.720246
-1.98678
-0.905323
-4.73349
-1.78911
-3.38753
-2.10592
-0.0430527
-0.617666
-0.0633564
-1.08466
-0.528368
-1.08764
-0.518873
9.78374
9.20842
9.41564
8.12304
-1.55951
7.54405
1.07033
7.5149
2.06686
-3.52214
-1.23621
-3.11082
0.997825
-1.30494
-0.749906
-2.89866
-1.72673
-0.925411
-0.959282
0.00252098
-1.15971
-0.234045
-0.803143
-0.234399
-3.489
-0.0316591
-0.317284
-3.27745
-4.26818
-4.50515
-3.83793
-2.43871
-1.78346
-0.239282
-0.0137278
1.1768
-1.76224
0.115813
1.23857
0.876098
-0.491445
-2.72894
-0.360857
-3.38276
-0.948213
-3.48874
-4.97283
-5.21855
-4.3364
-4.59647
-5.44301
-5.48504
-4.08742
-3.25412
-4.1387
-2.91627
-4.49607
-3.53592
-2.10454
-0.827352
-2.14525
-0.266292
-2.07528
-0.792138
-10.954
0.375461
-22.325
-0.664244
-9.34445
3.11442
-22.1156
-9.51629
-19.5292
-17.2395
-12.4481
-11.3297
-22.5566
-16.9607
-19.9892
-3.1715
-16.8277
5.97459
-29.2063
-3.8899
-36.2512
-13.5851
-17.4056
-15.4978
-28.0033
-17.2064
-39.1168
-27.9023
-38.6647
-1.17514
-47.1068
-116.826
-116.359
-119.586
-92.3632
-26.3226
-40.2768
-32.9724
-60.4493
-36.1595
-75.8262
-34.429
-9.92749
-39.2489
-88.837
-128.443
-115.113
-33.6823
-38.5212
-28.7758
-34.4403
-84.4241
-41.1381
-14.3348
9.35211
-14.805
2.34595
-43.2115
51.0944
-19.4274
-17.5431
-16.5036
-46.017
-35.0319
-34.5519
-15.871
11.4234
-8.90642
21.3958
-35.402
10.2828
-8.75087
-14.622
-11.8654
-10.5829
-32.9984
-27.1942
-12.3855
-12.3576
9.83015
2.57549
8.44378
11.655
9.99298
9.01822
8.83072
2.92249
7.42165
2.77051
6.67871
2.24482
7.02769
4.06174
-2.42372
0.68215
-1.40176
-2.28748
-3.15962
-0.154328
-1.68913
-2.08001
-1.15736
-1.00332
-3.11776
-2.53538
-2.15532
-2.01361
-0.775593
-0.848977
-0.253578
-1.81091
-0.964961
-1.63741
-1.01089
7.94707
7.57229
8.177
2.43844
7.22005
3.03018
-1.11613
0.698037
-1.31757
-0.8089
-1.50714
-1.21297
-0.130265
-1.16885
-0.381914
-1.08217
-4.50788
-4.89417
-3.69015
-3.12966
-2.17009
-2.10748
0.417928
-2.29598
-0.117004
-6.12335
-0.0738851
0.855889
0.0684444
-0.505596
-3.25304
-0.749168
-4.39906
-1.1125
-3.19568
-4.26426
-4.5072
-4.77186
-3.77821
-4.97765
-5.07447
-3.96015
-2.81022
-3.34458
-2.24458
-4.05474
-3.19908
-2.08683
-0.256513
-2.09563
0.0905824
-2.19312
-0.835626
-34.2919
-9.06471
-48.9118
-39.0622
-56.0849
-125.233
-110.344
-21.2167
-48.2726
-40.1819
-48.6167
-30.2022
-90.6057
-40.5549
-59.3212
-144.142
-117.09
-9.68827
-152.118
-130.879
-37.1556
-72.6021
-44.7283
-41.4527
-98.6299
-42.4426
-141.334
-139.184
-136.97
-118.485
434.88
437.187
-54.9799
-108.847
-41.8966
-104.768
-43.1572
436.533
-17.7282
-31.1353
-17.2506
-32.3257
-13.5755
-14.0981
-2.82963
-9.28633
-3.12335
-9.51811
-2.60879
-10.9778
-1.20022
-148.507
136.353
-230.751
336.882
430.513
346.817
425.564
-135.714
-214.478
-96.511
436.452
437.118
433.533
436.883
-40.0137
-78.7388
-33.3231
436.524
388.943
436.568
367.38
-20.0555
-28.3498
-20.8405
419.097
-15.0766
445.818
-4.13487
-17.5494
-5.6988
-12.6109
-1.54484
-6.28899
-161.267
119.954
-195.624
347.162
425.455
339.406
424.613
-204.482
-135.708
433.09
435.915
433.254
435.771
-33.2752
-98.0004
-42.3814
435.594
405.216
435.371
359.789
-20.5241
-34.2187
-22.9053
430.25
407.882
-17.0878
-6.24911
-15.8497
-6.29988
-5.81585
-15.4584
-5.59731
-151.53
-123.188
-138.409
433.877
435.883
429.854
-46.9326
-115.639
-59.5235
435.426
386.734
-47.5842
-21.7402
-35.4814
-21.4711
418.838
-17.7466
-40.1579
-16.9714
-4.80368
-10.6322
-3.20583
-16.033
-4.19822
-12.4913
-1.40001
-127.647
-96.624
-124.185
-125.572
-98.6486
-156.19
-61.2375
-88.5125
-56.1238
-109.216
-49.676
-141.935
-50.002
35.7905
50.9121
41.0657
102.036
-9.77621
70.6587
23.31
-67.2417
25.2075
-45.4546
-28.674
-81.263
-43.0406
-41.2973
-37.6921
-74.8085
-46.8419
-20.3254
-32.4092
-17.2958
-47.0356
-25.1622
-35.9464
-18.5141
-29.6289
7.25129
-10.3451
-9.48118
-41.8046
1.7528
-22.2815
-28.8944
-17.6555
-17.9875
-47.1735
-38.8676
-26.9112
-24.0934
8.32664
10.7594
9.40135
7.80784
8.75178
4.31252
6.7792
3.22941
7.42422
2.11427
-1.32016
-0.756201
-1.97047
0.202727
-1.64712
-1.65585
-2.124
-2.02612
-1.51949
-1.32993
-0.914906
-1.45513
-0.706096
-1.07384
-0.409573
6.6264
8.35224
7.60821
1.04289
0.125925
-0.968125
-0.410536
-0.89488
-0.918618
-0.121874
-6.82644
-0.522182
0.513369
3.64175
-1.24252
-4.94297
-1.00756
-8.64601
-5.28485
-3.23143
-9.15059
-5.24802
-2.85616
-1.57945
-2.27469
-1.58623
-2.64619
0.195849
-1.21888
-0.202031
0.437487
1.81664
0.989727
1.86396
1.9706
3.84761
2.02254
-4.91168
-1.64893
-4.49696
-1.91862
-7.39887
-2.21054
-6.78691
-4.5223
-6.32138
-6.20067
-8.24507
-6.66157
-8.10411
-7.25042
-2.21112
-4.58896
-3.40463
-3.35619
-2.41624
-4.49389
-3.44556
-0.252613
-2.22194
-0.763782
-1.4116
-0.407299
-2.19304
-0.818915
-108.978
-197.86
-119.935
-148.837
-142.903
438.586
-38.3896
-92.113
-42.0548
-83.2046
-46.2788
-33.0956
-116.216
-118.459
438.699
438.879
433.025
436.638
-39.652
-102.616
-38.4909
438.727
-31.2023
434.562
372.839
-13.4558
-32.3941
-12.6162
-25.9216
-10.4585
422.927
303.821
-2.4008
-9.05461
-0.971335
-7.93755
-0.561186
298.736
434.906
437.09
433.695
435.72
430.595
433.834
-39.623
436.156
460.777
433.051
403.634
432.849
414.367
-12.5021
426.827
403.806
299.565
417.788
330.81
-0.77132
-9.88729
-0.395987
301.203
9.02139
260.777
5.23926
436.586
431.914
434.675
427.936
432.73
426.861
431.261
403.556
436.178
347.861
432.441
412.092
431.915
441.119
453.712
349.396
442.825
297.81
444.302
237.946
-0.62025
326.67
-5.31868
234.348
2.25045
295.326
4.71813
434.274
431.758
435.117
426.161
430.729
425.421
430.348
407.805
434.587
393.31
431.874
433.337
430.163
475.366
317.179
413.934
318.443
423.464
289.729
369.165
283.641
-2.85055
-3.10553
288.225
286.32
2.24601
435.578
430.568
435.079
426.74
431.133
429.003
432.342
377.002
434.485
-45.2799
430.725
416.175
430.385
378.683
-37.7196
-14.7732
349.59
210.348
410.949
265.671
-2.04871
-12.3825
-1.17868
225.719
3.08265
300.082
-5.79658
435.231
-98.5765
426.678
432.958
432.393
434.498
-46.1334
-48.6468
432.496
552.284
433.753
411.862
-14.4602
-44.2309
-15.6463
405.439
311.269
395.041
-11.6978
-1.39143
-11.67
-3.43861
292.486
-8.0034
-9.62314
-0.956824
-167.824
-149.517
429.746
434.796
-88.1109
-136.189
-97.3917
-59.9437
434.31
411.748
-112.271
-55.0008
-20.1833
-30.8927
-18.747
-12.6375
-34.9485
-24.3438
8.86386
11.6057
11.4943
0.847064
7.85954
-3.50879
-1.903
-5.23961
-3.87263
-1.18129
-1.79192
-0.723018
-0.0368907
-0.559128
-0.262802
2.1928
4.44728
3.07704
5.00998
-0.381654
-10.6586
2.48315
-9.57683
-10.4932
-4.34088
-10.6554
-7.90548
-0.493271
-1.12883
-4.28283
-1.85161
-0.735907
-0.0580907
-1.25891
-0.331626
5.51693
6.15326
3.65895
5.80796
5.93251
8.40722
8.55047
-10.1474
-0.871526
-11.3237
2.452
-9.78538
1.38399
-17.4059
-5.25267
-11.7725
-8.79267
-11.2406
-9.12661
-18.5642
-6.56655
-1.66787
-6.5829
-2.09503
-6.38831
-1.8862
-2.14056
-2.58774
-12.1534
-4.19566
-16.0806
-0.445034
-18.8452
-5.99806
-10.1228
-17.4864
-15.4227
-19.3979
-7.6625
-27.5664
-19.9462
-19.5482
-32.7279
-6.37916
-37.8979
-28.2593
-68.4638
-17.5529
-31.7273
-24.5096
-34.1548
-29.1767
-61.7175
-36.1132
-71.5044
-182.916
-128.322
-66.1795
-85.2314
-177.165
-125.792
-32.5973
-75.7703
-45.1603
-69.9282
-43.1522
-86.9504
-36.2136
-136.023
438.536
439.256
-112.656
434.194
437.776
-38.9865
438.87
-31.7146
-92.0748
-32.0859
437.076
459.94
-12.8448
-25.8625
-10.6443
-25.9902
-12.7358
405.835
285.633
-1.71676
-8.8979
-0.617063
-9.37998
-1.09694
296.546
-2.78632
435.703
416.109
436.572
368.717
436.318
385.06
-10.4101
431.735
299.604
349.092
260.498
373.674
144.531
-0.0694608
288.984
293.437
-9.37257
274.292
-0.287117
422.494
433.124
356.183
436.416
418.878
433.465
454.837
294.361
416.737
286.993
423.162
259.697
438.395
219.424
1.35127
321.209
4.02237
278.264
-1.02375
213.729
-70.0427
409.854
431.819
439.292
432.29
556.482
431.335
623.333
307.634
444.006
217.259
422.558
224.668
436.035
277.439
0.471567
289.569
4.85112
93.7004
273.29
-24.5024
429.254
430.15
413.4
432.335
470.553
431.939
428.328
262.181
361.024
294.451
430.619
1.32492
437.957
189.378
258.816
-1.47729
193.644
-64.2468
374.746
431.31
442.372
431.582
445.988
431.417
421.432
266.153
420.574
284.411
453.024
228.756
377.563
235.688
2.66594
322.54
-1.52305
170.972
268.405
-0.858233
411.818
433.472
409.8
430.978
206.76
429.127
410.609
277.856
418.571
400.565
167.98
431.47
272.568
-13.5584
-0.223355
265.416
1.86317
242.463
1.65246
434.791
-59.9539
-134.619
430.298
430.502
427.895
433.764
422.27
-114.085
-53.644
429.797
410.285
432.738
-11.8587
-38.9696
-17.8364
432.949
273.839
-39.0087
-15.904
-0.422799
-12.6376
-1.36157
300.905
-4.24052
-13.5139
-2.54025
-150.921
-132.109
-154.251
426.694
-121.942
-157.589
-63.2718
-101.669
-62.2408
-47.3043
-110.306
-57.1022
-22.6907
-34.8111
-20.8969
-39.7368
-18.2416
-33.8591
-21.8364
-49.0784
3.58656
-20.7289
-72.2409
-105.815
13.635
-45.1491
-37.8002
-27.3369
-25.2058
-83.7129
-44.0376
-41.3922
-38.8734
-10.8223
7.95315
-7.14609
20.8692
-39.2525
15.0687
-16.9822
-9.5829
-9.54876
-36.8379
-33.0846
-20.3346
-6.11056
11.3804
-4.55166
10.3493
-21.2458
12.4321
-7.307
-8.39151
-6.10222
-5.6618
-18.9273
-16.1694
-10.1063
-8.38749
13.8926
13.5763
14.2387
6.08203
10.3173
-6.24714
11.213
-4.18744
8.47953
-1.51548
-5.41643
-6.75211
-6.7502
-3.52971
-2.91206
-0.270782
-4.82852
-0.572471
-1.05054
-0.6802
-0.160703
-0.1843
-0.15814
-0.622463
-0.170549
9.77749
8.27032
-1.1921
-2.2661
-2.50272
-1.40567
-0.463749
-0.459966
-0.0543788
2.38678
2.65729
-0.109097
0.824995
0.819069
-0.832
-5.31086
-0.346477
-3.75478
-0.789389
-3.82987
-7.40274
-6.71554
-4.27613
-3.5569
-6.31739
-5.97095
-3.54533
-2.13305
-2.83668
-2.20939
-3.99035
-2.87169
-1.18291
-0.565585
-2.00143
0.30821
-1.55277
-0.525177
-9.03644
1.74008
-12.6894
-0.300813
-4.40102
-0.539991
-6.75185
-8.95768
-14.0294
-9.1463
-7.92665
-7.97074
-10.5483
-10.0156
-15.1356
0.011855
-9.83365
-3.53376
-16.6292
-10.7147
-14.8683
-13.7912
-21.2047
-17.7198
-37.8399
-71.0677
-9.26509
-30.5272
-78.9659
-89.2655
-65.2804
-34.9061
-30.6279
-22.4049
-69.9548
-36.9895
-33.3942
234.596
-174.597
109.667
-110.581
311.566
433.739
-80.1872
-192.03
-115.411
-163.098
-117.443
437.231
439.384
-38.0113
-92.4904
-31.3186
-89.0428
-41.7058
438.823
-18.45
-22.9708
-13.3545
-31.7415
-18.1561
-12.6957
-3.17467
-9.62503
-2.57116
-8.36095
-2.79004
-8.7
-0.812518
-109.355
435.955
436.826
437.065
439.179
433.595
436.233
-30.1108
436.542
400.847
438.144
422.683
435.013
420.479
-12.2855
403.885
282.855
431.661
-9.93289
427.099
208.037
-0.993989
285.02
11.6264
-8.00114
-0.534202
261.23
-0.506974
558.623
434.949
426.205
435.175
356.136
434.646
359.124
258.359
410.776
250.294
416.291
269.611
444.734
122.829
2.04746
307.801
297.178
1.38767
257.882
-94.154
381.688
436.459
416.144
434.966
439.711
429.062
498.487
193.786
439.779
246.42
437.191
184.813
406.765
162.917
-0.350667
364.892
-29.5352
213.922
334.79
585.28
430.346
598.021
425.597
433.569
419.41
377.925
192.696
435.795
210.866
342.237
164.235
340.083
257.276
-39.1728
231.55
-20.5038
227.757
251.749
439.058
418.9
414.797
418.121
415.016
419.735
415.207
417.78
428.827
423.15
429.248
421.901
418.672
421.74
422.253
479.627
430.877
501.975
418.44
375.718
417.385
355.644
173.532
453.396
68.643
341.59
257.073
278.813
254.061
172.046
249.749
403.731
253.847
620.112
458.049
433.178
206.66
423.238
390.407
428.669
440.862
206.775
394.334
223.141
268.59
194.864
442.83
243.384
397.377
2.78485
222.142
586.272
264.134
383.647
428.35
412.322
429.428
562.009
428.179
398.274
202.819
427.583
309.042
438.075
237.34
422.396
185.715
-20.957
266.434
-4.85177
315.903
221.876
-0.244513
429.822
430.336
433.55
424.706
428.241
430.749
432.246
439.025
432.687
427.705
443.174
431.557
357.224
286.531
-15.371
423.752
215.565
340.007
278.898
-5.42627
-13.2357
-3.22826
244.022
-14.5537
278.572
-10.4878
415.14
165.962
-44.5401
328.723
419.569
180.084
-117.041
433.771
-170.472
-157.594
432.472
433.578
-156.781
-154.781
-41.8249
-108.05
-45.6414
432.389
327.307
-113.438
-51.6857
-17.3332
-38.1712
-21.7708
386.997
286.498
-40.4183
-19.0449
-3.39761
-13.1259
-5.07809
-7.03335
-13.2457
-5.33373
-115.135
34.2994
-145.418
-152.579
0.750854
-53.3984
-46.5131
-38.5026
-109.291
-54.1537
-53.6255
-38.1181
13.7291
-18.9611
8.20346
-32.5119
6.17263
-9.36596
-18.4756
-18.6512
-36.3634
-26.0684
-16.2602
-15.677
-11.5145
9.1118
-5.10389
7.57319
-3.50745
7.33275
-0.250182
-13.6264
-7.6261
-7.85449
-9.77777
-10.7496
-6.2066
-7.48305
11.5582
6.14569
9.9507
12.1891
10.6508
8.06014
8.66541
-0.591009
7.45848
-0.742145
6.75261
1.20909
7.00502
1.6158
-5.36147
-2.56425
-2.54414
-3.4601
-4.61452
-0.25507
-2.04848
-2.24319
-1.65815
-1.4441
-3.82291
-2.86937
-1.83479
-1.88384
-0.635398
-1.23533
-0.271032
-1.77108
-0.609439
-1.59666
-0.353115
9.37825
5.25482
7.7625
-0.681623
6.89041
1.60237
-2.11738
0.909574
-1.26536
-0.910704
-1.30996
-1.96958
-0.091746
-1.78564
-0.173644
-2.33374
-3.6562
-4.28707
-3.98494
-2.80262
-2.30453
0.273223
-0.369748
1.04777
0.551063
-7.18163
-0.922613
1.17432
0.525363
-3.46115
-0.732908
-3.38946
-1.17633
-2.59705
-0.731943
-3.22334
-3.66291
-5.90819
-5.3957
-3.7279
-4.55682
-5.90096
-5.54309
-2.30862
-4.1239
-3.2497
-4.19341
-2.9801
-4.39551
-3.51639
0.237613
-2.1841
-0.889503
-2.10891
-0.220422
-2.35556
-0.955734
-143.504
437.185
439.297
-102.45
-139.327
438.715
438.891
-39.7151
438.623
-109.802
-44.3495
438.621
431.092
-16.3253
-11.2219
-32.6162
-13.6749
436.961
-10.0098
-3.07134
-8.27484
-0.830556
-7.00638
-1.84796
-8.25444
-0.549829
438.945
432.257
435.602