/*--------------------------------*- C++ -*----------------------------------*\
| =========                 |                                                 |
| \\      /  F ield         | OpenFOAM: The Open Source CFD Toolbox           |
|  \\    /   O peration     | Version:  4.0                                   |
|   \\  /    A nd           | Web:      www.OpenFOAM.org                      |
|    \\/     M anipulation  |                                                 |
\*---------------------------------------------------------------------------*/
FoamFile
{
    version     2.0;
    format      ascii;
    class       volScalarField;
    location    "84";
    object      p;
}
// * * * * * * * * * * * * * * * * * * * * * * * * * * * * * * * * * * * * * //

dimensions      [0 2 -2 0 0 0 0];

internalField   nonuniform List<scalar> 
146404
(
-7.85873
-3.71879
-10.5416
-6.48492
-12.6768
-7.92167
-3.92361
-2.40591
-6.55477
-22.1883
-2.32716
-6.66178
-3.36986
-10.535
-6.40163
-3.41395
-6.9423
-6.0638
-4.01268
-9.93359
-7.96554
-11.4782
-8.55695
-4.25889
-5.63716
-7.7267
-11.8443
-10.446
-4.74959
-1.31552
-8.07168
-18.8976
-13.9505
-4.42356
-0.441329
-6.98236
-16.0359
-11.3331
-4.44697
5.07492
-1.02142
-21.1351
-4.1986
4.2762
-5.11998
-15.425
-11.3614
-4.78508
2.54228
-3.37077
-10.0788
-9.3421
-4.79295
1.50721
-1.93702
-8.12735
-7.73934
-3.92788
-0.341683
-1.1
-6.9211
-5.58987
-3.11892
-3.75561
-8.5903
-3.1865
-2.56586
-8.42099
-17.6775
-12.1627
-5.69134
2.76299
-8.76229
-24.7691
-19.5612
-7.62114
5.74114
-11.7037
-32.9877
-26.1637
-8.45636
8.26717
-7.42503
-26.3342
-20.5377
-9.8313
15.8567
-6.5563
-36.4853
-9.72153
13.3334
-7.59371
-27.0637
-25.448
-10.9558
16.7918
-5.46298
-25.9529
-22.6684
-11.0847
10.9783
-0.87449
-15.7602
-15.5875
-7.40433
9.03865
-2.60795
-12.5321
-7.60306
-4.3435
10.5871
-7.29648
-8.48536
-1.41072
7.97895
-3.20678
-1.9994
-1.23651
-9.1299
-11.9764
-15.9276
-10.4269
-4.03378
-2.13988
-11.2096
-23.749
-12.6456
-5.366
6.99455
-1.55101
-29.4546
-12.6386
-9.81981
14.1462
-12.0182
-35.1297
-31.9134
-11.971
24.4355
-30.6261
-55.2791
-56.3076
-11.5355
38.4569
-33.0911
-74.1453
-50.0375
-11.8431
50.7221
3.92953
-91.0823
-11.6991
40.2256
-23.0041
-77.1733
-58.0709
-16.3326
30.9693
-17.4418
-56.2177
-56.0062
-19.8679
27.4772
-2.49309
-32.3961
-36.088
-15.3168
23.4039
4.62943
-26.2729
-11.1313
-8.76096
16.3381
8.32199
-9.34712
-8.46406
-4.84337
10.6659
7.31558
-1.5273
-3.77553
-2.67635
8.11991
2.1203
-1.04523
-1.81156
-10.981
-12.0288
-14.4176
-10.5638
-4.50275
-4.66489
-13.473
-25.6998
-15.4449
-5.13869
1.61653
-15.1183
-33.4806
-24.5287
-8.87231
24.4193
-13.1384
-57.5307
-27.7857
-12.0138
58.0336
-22.4892
-93.2116
-121.346
-19.8408
102.41
-83.2961
-163.804
-140.796
-26.2029
119.67
-93.2238
-164.284
-144.861
-30.7691
151.354
-70.8198
-150.406
-21.1818
122.078
-96.5603
-160.298
-160.57
-41.4481
97.4831
-77.8822
-132.236
-174.074
-55.7495
66.1984
-2.43123
-89.3013
-137.307
-42.5354
43.8912
21.5686
-41.9022
-56.8603
-22.4264
25.7343
9.44626
-16.791
-20.8544
-10.2726
17.4298
7.94908
-5.22461
-8.58915
-4.42344
10.8722
9.09764
0.704933
-3.72929
-2.72137
-13.7176
-12.0005
-14.805
-9.1282
-4.15702
-5.88038
-14.2687
-19.3653
-14.789
-5.19304
-1.05773
-15.3969
-38.9284
-24.2932
-7.63762
12.4496
-29.2726
-89.6819
-46.1783
-11.3167
57.8998
-110.192
-178.085
-125.696
-15.6834
141.42
-96.6567
-143.975
-179.805
-22.6181
310.931
435.658
-124.975
-18.7693
382.598
434.091
435.255
410.149
386.097
431.067
434.674
428.404
305.047
372.564
430.526
433.961
421.803
305.772
429.439
-145.354
-43.8486
182.912
-129.908
-68.8526
79.8261
-15.2675
-77.4243
-135.603
-43.9246
37.0717
6.96838
-40.5102
-54.579
-19.13
24.2453
14.7609
-12.0907
-20.008
-7.71616
16.8542
8.50444
-3.00156
-6.18256
-4.3243
9.32719
8.49486
-0.0346348
-1.45094
-1.72548
-5.24483
-11.1231
-21.5442
-7.47915
-3.14861
-2.16495
-14.0726
-25.9368
-15.0115
-5.19903
6.1523
-18.1094
-44.5356
-29.2339
-9.10034
37.2998
-75.6908
-129.064
-65.8359
-13.9132
125.762
-138.583
-220.627
-130.221
-16.6516
373.919
437.073
438.034
-13.7081
412.787
430.53
434.124
405.412
303.715
414.095
427.032
431.631
437.36
331.206
412.885
425.604
431.775
424.471
282.782
409.286
425.417
430.171
415.976
330.842
391.192
425.867
431.068
398.73
293.754
349.604
431.988
432.593
423.485
-59.8972
182.558
-31.3974
-75.9083
-146.122
-74.6214
63.868
-0.593735
-72.4449
-118.398
-32.3937
35.807
15.9277
-22.6583
-28.142
-12.2672
21.9649
12.6045
-10.1897
-10.2513
-4.72625
15.2028
10.1246
-7.18211
-0.428706
-1.84938
-4.0082
-9.01142
-18.1686
-10.4238
-4.74214
3.6653
-3.94238
-27.7215
-13.6573
-7.22594
24.8604
-37.401
-11.757
83.4946
-83.1892
-169.357
-113.31
-14.7779
303.612
-210.432
-117.47
-6.45862
413.668
431.259
436.024
391.374
274.479
416.964
427.651
435.136
378.517
265.562
415.069
423.955
433.93
431.005
327.959
413.288
421.297
429.931
431.311
210.2
412.935
422.512
431.848
454.05
314.656
409.046
423.595
431.452
351.039
295.577
387.986
426.572
427.595
429.066
311.492
308.073
429.394
432.342
-123.75
-64.8953
104.622
-0.915267
-75.126
-129.848
-41.5129
48.0468
89.7467
-156.068
-16.919
24.964
16.13
-18.0985
-12.8058
-6.04615
14.3974
7.12098
-6.32331
-4.98888
-3.62028
8.38612
-2.20668
-2.0764
-1.72274
-7.68717
-10.9038
-8.54343
-4.69463
-1.91414
-8.52368
-19.6871
-13.2816
-4.62181
5.62743
-13.0092
-37.7475
-25.4115
-8.21117
29.4719
-30.4404
-71.5346
-50.5875
-11.8582
98.489
-65.7593
-185.817
-116.074
-27.4385
380.821
436.844
437.539
438.073
-4.48575
416.921
430.023
434.735
387.586
260.781
416.788
425.67
433.499
457.934
169.842
414.322
420.696
424.936
290.066
230.497
407.892
416.731
414.287
336.744
257.901
410.398
418.162
420.084
288.904
225.112
411.744
422.003
430.353
439.132
175.992
399.705
423.212
427.894
411.92
255.882
351.087
430.851
433.168
384.842
310.594
139.373
-33.4765
-83.7267
-150.677
-65.8679
37.9769
10.7461
-46.1237
-51.6333
-18.3609
22.1841
7.07383
-12.533
-17.8927
-8.27873
14.7684
8.72132
-3.28029
-8.76576
-4.86161
6.91277
8.07367
0.760232
-2.70739
-2.74689
-14.2349
-7.44969
-10.6358
-8.59497
-4.579
-1.58704
-8.26641
-19.2587
-13.3934
-4.75053
6.21295
-13.3874
-37.7546
-26.1669
-8.63625
31.2584
-33.1037
-74.0998
-54.2385
-11.8238
115.844
-79.7557
-172.516
-121.223
-28.6458
385.465
437.605
437.227
421.173
417.471
430.687
435.65
441.529
334.8
417.468
425.872
441.979
449.615
203.618
412.179
420.471
418.779
330.185
277.342
408.135
415.782
404.821
338.17
266.843
406.178
418.109
412.987
333.313
262.184
412.683
422.313
428.375
454.591
209.496
402.424
423.743
428.808
441.764
260.972
355.412
430.193
431.729
415.194
314.31
147.088
-41.188
-102.099
-151.255
-56.7344
33.6453
1.56775
-43.3794
-48.7998
-18.014
22.0054
7.2967
-14.8042
-18.9673
-8.68796
14.2386
8.48384
-3.71402
-9.57957
-5.05669
6.43542
7.63905
0.301979
-3.42404
-3.21193
-7.26522
-10.4034
-7.93393
-4.61459
-3.28904
-7.14521
-15.4812
-11.6818
-4.48202
5.919
-7.09382
-26.872
-22.2115
-8.70417
33.3872
-14.6971
-65.0856
-60.2526
-12.2467
127.21
-49.1345
-151.689
-153.445
-36.0587
375.269
436.767
437.693
413.691
-17.0711
415.522
431.569
435.489
427.01
278.589
418.628
428.199
438.368
438.271
206.783
416.642
422.972
427.284
320.153
231.402
413.691
419.834
418.573
329.763
269.387
414.68
420.877
424.334
327.597
259.193
411.95
424.937
433.334
441.1
141.881
398.625
426.68
430.045
351.588
263.746
337.797
433.864
433.826
422.187
316.863
111.495
-51.1076
-102.621
-151.891
-28.3508
41.416
11.1426
-47.4548
-65.7776
-14.5105
21.4245
10.5168
-13.6471
-18.9236
-6.03403
11.4848
6.74567
-4.84224
-7.65179
-4.67985
5.03247
6.8595
-0.0749963
-3.50076
-2.99371
-1.24801
-7.25777
-17.0364
-8.16847
-3.79522
7.24252
-4.9037
-26.9276
-7.70325
-7.24939
26.1411
-18.4582
-11.7865
74.599
-48.0536
-138.957
-160.506
-24.4701
287.575
-141.188
-153.706
-26.4216
397.047
433.17
436.176
437.406
291.854
415.451
429.796
435.449
433.429
227.868
417.742
428.263
433.104
452.229
322.763
417.516
431.75
439.388
441.24
229.186
413.84
426.688
433.468
429.903
260.994
407.402
426.733
431.116
373.698
259.806
383.98
431.305
430.849
372.836
299.593
289.47
432.041
434.17
-170.059
-28.8671
64.9794
-46.7532
-117.792
-224.182
-15.9645
27.1552
-4.23283
-78.6375
-10.1411
14.7791
18.2775
-22.2494
-17.9111
-5.36479
8.63119
9.85167
-9.26717
-8.66051
-3.92507
5.91841
-3.76251
-4.21296
-2.703
-4.41994
-9.05614
-18.8395
-8.20106
-3.56194
0.239484
-9.72611
-19.5578
-14.0745
-6.02637
8.7488
-12.0006
-35.7927
-31.5912
-9.81619
34.9089
-35.8455
-88.3343
-75.374
-16.9584
128.899
-69.6732
-149.793
-157.021
-33.3996
332.983
438.561
439.302
-34.1803
392.624
433.536
435.413
429.58
263.728
404.815
429.471
433.793
446.515
252.347
406.807
429.034
437.922
358.496
167.095
401.642
428.739
432.516
441.053
263.44
383.668
432.515
431.287
402.994
289.519
336.549
434.16
434.784
340.044
-6.47361
91.088
-107.1
-189.421
-164.079
-18.2233
11.0331
-17.4234
-48.2319
-40.7631
-13.3809
4.42159
-7.66181
-32.801
-27.8339
-7.2288
3.17057
-9.2836
-19.4371
-12.4389
-5.34167
1.45109
-6.81486
-18.5101
-6.31453
-2.91681
-12.4233
-8.31619
-11.829
-8.16703
-4.23505
-4.45722
-8.70741
-13.6038
-11.1294
-5.17575
1.64895
-7.93581
-23.6755
-17.8981
-6.56867
16.5156
-11.2912
-39.4223
-41.987
-12.9202
51.1206
-35.4111
-110.39
-123.842
-19.4374
119.941
-63.8667
-105.582
-176.315
-48.45
281.373
434.997
-118.822
-152.342
-30.2312
352.085
434.639
437.267
392.756
360.734
435.098
437.961
401.674
317.873
349.761
434.602
436.238
422.037
280.343
435.207
-156.826
-20.1412
94.2428
-190.314
-14.7608
33.7719
-36.5003
-90.7978
-78.5842
-12.6458
3.59475
-9.62848
-28.9729
-22.0522
-7.12656
-1.60257
-9.26317
-17.9038
-12.8516
-4.89586
-3.21251
-7.62918
-13.6312
-10.6346
-4.74041
-6.46645
-6.86864
-11.4092
-7.7971
-3.82798
-8.47536
-7.86827
-10.957
-8.76376
-3.94847
-3.04302
-7.52017
-15.6932
-11.3466
-4.70737
4.53228
-7.70652
-24.5299
-21.0435
-7.15469
21.659
-1.34702
-47.6256
-32.6756
-10.678
37.051
-22.4962
-82.7366
-93.1147
-14.8827
52.542
-59.6857
-139.788
-120.591
-15.3968
73.0221
-116.694
-151.161
-118.388
-23.2397
81.5611
-122.967
-170.221
-20.4086
70.7469
-114.114
-163.783
-118.853
-10.1626
47.8291
-60.581
-138.25
-108.146
-13.3766
29.2711
-15.655
-85.3504
-94.8245
-10.3724
13.1414
-9.61379
-55.2094
-28.8119
-7.21478
1.36919
-8.59384
-23.9114
-18.7951
-5.28164
-3.58278
-8.46597
-15.2909
-12.1372
-5.16336
-6.78821
-7.53261
-11.6178
-9.80429
-4.72868
-6.02843
-8.27308
-13.4619
-9.00998
-4.11121
0.374195
-6.45268
-20.6088
-11.8146
-5.00222
4.14079
-6.8267
-27.9389
-12.1346
-6.25051
3.9848
-9.8631
-26.2234
-23.2207
-9.11347
5.77216
-14.5741
-37.0635
-28.6501
-10.0714
19.7774
-18.8099
-48.6797
-43.8699
-10.7475
25.7683
-23.9822
-52.948
-10.3871
6.84527
-21.414
-51.6981
-26.6764
-9.21753
3.1216
-11.7656
-29.3856
-23.8037
-9.17015
4.96588
-9.62886
-28.7228
-26.4072
-6.47065
1.97145
-4.77114
-29.8265
-17.2479
-4.70717
-2.34957
-7.07981
-21.3824
-11.2046
-4.16094
-6.84583
-8.23881
-13.2792
-9.47744
-4.67738
-7.61686
-10.3889
-8.10172
-4.59476
-4.00688
-2.35843
-3.30725
-4.19614
-8.40233
-15.0127
-10.2302
-4.95883
-1.60761
-7.31878
-16.7034
-14.5789
-6.31071
-1.76401
-8.55172
-20.1126
-14.4473
-5.01579
2.13926
-8.46929
-23.5549
-19.0033
-5.11952
5.81877
-10.3498
-20.6351
-4.78885
-1.67983
-12.9698
-25.2353
-12.9286
-4.85163
-0.796671
-9.33521
-17.523
-12.936
-4.95548
-4.17677
-9.71457
-17.1096
-13.4488
-5.71246
-5.74891
-9.67086
-16.2261
-10.5189
-4.61916
-4.70273
-1.78966
-23.2467
-12.6409
-3.463
-14.5916
-6.72774
-3.73627
-11.6905
-7.85892
-11.4422
-7.79632
-4.11618
-8.01036
-7.86254
-11.0592
-9.57534
-4.83623
-6.19756
-7.57427
-13.5594
-10.8422
-4.86338
-4.43497
-8.38783
-15.78
-10.6352
-4.76822
-1.21871
-10.3738
-11.8118
-4.68345
-5.18366
-11.3937
-16.4076
-10.4692
-4.69952
-8.07825
-10.2701
-13.3421
-10.609
-4.71055
-9.40198
-9.53473
-12.7009
-10.4396
-5.09786
-11.4961
-9.13431
-12.5059
-8.83931
-4.46288
-13.0248
-7.58973
-12.4731
-8.78981
-4.3648
-10.3246
-10.4298
-6.03566
-3.3042
-13.4726
-9.69314
-14.8042
-9.06247
-4.3398
-8.69703
-4.73661
-10.8846
-11.4877
-9.16439
-8.10952
-4.87175
-4.00621
-0.264713
-7.57535
0.117289
-11.5728
-11.0889
-19.5831
-12.0198
-9.28761
-20.0762
-10.176
-7.98279
-4.73289
-10.4168
-3.13985
-3.93565
-0.281306
-2.81883
-0.335976
-7.10551
10.5137
-1.68867
-6.30573
-2.89217
-10.3192
-10.8051
-7.60907
-22.2331
-2.82157
-6.08819
-3.85166
-2.54372
-0.315706
-3.32421
-0.37352
-2.41245
-3.40738
-9.588
-10.1616
-7.54343
-6.11498
-3.98987
-3.41679
-0.372914
-7.59731
-7.86281
-10.9935
-11.3915
-9.23273
-8.14785
-4.99609
-4.20271
-0.292156
-13.8146
-7.66469
-9.0332
-7.32396
-7.86756
-10.781
-7.69996
-9.65645
-11.15
-9.20838
-10.7007
-9.86873
-8.14482
-5.09645
-8.86069
-5.93305
-4.30624
-0.293626
-4.51064
-0.766801
-8.21182
-7.05574
-6.01244
-6.39887
-7.44313
-9.58687
-7.14874
-10.2677
-10.609
-10.1792
-11.8436
-11.0477
-9.23393
-6.28057
-10.2526
-6.74223
-4.72623
-0.829745
-5.03715
-0.964702
-11.0197
-6.23003
-5.64229
-5.85705
-4.36241
-4.9698
-6.60895
-10.7026
-6.9595
-9.56124
-6.88459
-10.835
-9.73335
-11.6258
-9.92951
-12.5975
-11.8133
-14.261
-13.2617
-5.67238
-7.88218
-5.2345
-9.9402
-7.34591
-10.6379
-7.61994
-3.92997
-0.645064
-4.31164
-1.68927
-4.42227
-1.73902
-5.93077
-3.467
0.366613
-2.90679
-3.73294
0.144048
1.22437
-11.8324
-7.85139
-19.9353
-7.27483
-11.9345
-12.6881
-23.2445
-10.2505
-20.3292
-11.4598
-14.0166
-12.3807
-24.2326
-14.3105
-5.17052
-5.78138
-3.91554
-9.00201
-7.15001
-6.37445
-4.18058
-0.734091
-3.04619
-0.649538
-4.60375
-1.96098
-3.39224
-1.5485
5.56985
-6.2961
-1.56487
2.55393
11.2163
1.09706
0.304424
-3.15464
-10.0144
-2.07953
-2.82966
-11.3553
-10.8126
-8.27362
-16.4074
-12.4508
-11.443
-2.90951
-5.96502
-4.24034
-20.4705
-5.20474
-8.88083
-5.80835
-0.517087
-3.297
-0.656499
-3.91392
-1.56691
-4.35222
-1.94591
-2.51501
-2.47232
0.491996
-0.957319
-0.0828627
-1.34127
-9.51051
-2.76688
-6.68164
-4.40659
-9.34327
-4.18601
-7.25959
-8.59983
-7.32359
-6.92469
-12.4764
-11.5968
-9.66593
-9.23563
-4.41676
-6.18465
-4.34247
-8.06069
-5.87733
-8.28065
-6.33398
-0.646103
-3.8063
-0.380673
-4.212
-1.82053
-4.31333
-1.87808
0.144285
-1.10066
-0.749091
-0.924695
-6.23578
-3.07374
-5.53449
-1.96218
-5.5166
-6.66991
-8.19376
-8.6612
-6.98812
-7.79259
-4.40793
-7.60253
-5.8795
-7.30861
-5.31041
-0.364346
-3.82337
-1.66585
-4.13442
-0.825676
-1.05363
-0.894134
-2.48512
-0.5679
-1.82275
-5.24072
-0.988641
-4.89085
-6.69463
-7.2909
-6.34454
-6.3019
-6.85363
-4.91754
-5.48726
-4.09676
-3.90131
-0.762493
-3.32849
-0.648689
-3.07418
-0.43923
-0.860344
-5.69588
-6.39549
-6.1264
-5.52833
-3.70605
-3.25754
-0.332364
-8.24717
11.9364
-5.4359
-3.75831
-3.04856
-0.545564
-12.1441
-7.5382
-6.46312
-2.15574
-5.99656
-5.80792
-7.81074
-11.4659
-8.67863
-8.73726
-13.7825
-12.019
-10.0846
-13.9893
-15.4417
-13.4078
-8.01036
-5.21683
-2.97401
-4.65464
-8.58413
-5.79912
-3.93195
-0.612476
-3.47586
-0.645705
-3.80775
-1.54388
-7.41703
-6.94864
-6.66088
-5.47107
-5.55745
-4.21163
-5.28898
-10.7816
-8.01227
-9.97445
-8.40225
-12.5188
-8.10609
-11.9424
-10.2304
-11.792
-11.6703
-14.5449
-13.6898
-14.5858
-14.1651
-5.74207
-9.31377
-7.31652
-10.1499
-7.40429
-11.5628
-8.49528
-0.734139
-4.14166
-1.70078
-4.80608
-2.07555
-5.15202
-2.12585
-13.3329
-12.5082
-24.0784
-6.98933
-16.1371
-5.0243
-33.2779
-15.1057
-25.3743
-15.4727
-20.4659
-19.5079
-34.4181
-23.686
-2.67592
-12.6736
-6.79033
-1.20106
-17.6693
-17.9589
-13.9005
-13.1638
-26.6754
-20.4534
-20.0846
0.733208
-0.153421
-0.00654522
5.69785
2.98299
4.65958
3.27917
0.237723
4.69892
3.49822
6.97305
6.73424
-5.70992
-2.18004
-8.09993
0.219286
-14.7946
-6.73714
-10.5122
-9.48959
-14.6414
-7.43732
-3.88674
-6.4447
-4.49162
-2.73918
-3.52437
-0.658749
-3.36539
-1.53344
-2.38643
-0.572946
7.41274
9.81349
1.38971
-16.5986
8.48697
-3.72219
-16.7712
-7.3688
-5.20088
-3.84713
-5.01746
-1.08363
-2.35043
-0.81128
-1.21556
-0.385937
-0.795439
-0.222481
-12.4844
-10.9081
-11.5453
-13.6593
-14.1934
-11.2122
-9.38496
-5.642
-4.27057
-0.740104
-6.70257
-2.24353
-10.8083
-10.2761
-6.65491
-7.54718
17.8839
-11.917
-14.5069
-11.7078
-19.9605
-36.646
-15.2794
-13.0707
-20.2513
-13.9056
-1.30671
-4.42432
-8.8178
-6.21062
-8.58282
-6.26898
-3.2884
-0.605491
-3.80625
-1.55063
-4.00689
-1.67329
-7.40675
-17.1405
-11.1086
-23.2251
-2.9366
-29.4602
-17.9984
-14.5497
-23.1733
-13.9499
-28.2946
-21.1064
-20.916
-5.13783
-35.8399
-13.2496
-32.4702
-6.90251
-67.9746
-27.3516
-36.8738
-26.7935
-41.5557
-42.497
-63.3737
-55.2642
-1.24547
-21.0397
1.13328
-0.726595
-40.2068
-30.1096
-24.2831
-25.5583
-62.7727
-46.7233
-48.1334
-11.3893
-0.140759
-15.7878
2.96151
-20.0345
15.002
-10.4577
-11.6294
-15.8778
-7.21639
-22.366
-18.6335
-12.5428
-11.6039
11.1137
3.57499
9.12303
13.1175
14.3607
10.6582
10.5308
8.2144
-2.37763
11.7322
-5.77741
7.24494
0.725727
-7.77188
-5.00169
-4.35462
-10.1448
-10.2622
-4.50718
-5.52858
-1.75567
-1.97665
-1.44386
-6.8262
-3.77137
-3.99838
-3.14195
-0.812499
-1.2012
-0.424146
-2.9987
-1.35794
-2.66758
-1.30407
8.89411
9.36239
9.03911
8.33644
-1.76549
7.6359
1.08633
7.88743
2.97705
-3.26241
-1.55839
-3.54783
1.74242
-1.34533
-1.46631
-3.42722
-2.55125
-1.16506
-2.06262
-0.386458
-2.35724
-0.587532
-1.76939
-0.371327
-14.9639
-11.8101
-11.6221
-12.641
-13.004
-10.9057
-9.44071
-6.08947
-4.56076
-0.695118
-11.5452
-10.8846
-13.1483
-11.6094
-10.0804
-10.5371
-11.8373
-13.0553
-11.7825
-13.0404
-12.1278
-14.1594
-14.0185
-12.5704
-13.2933
-11.4522
-15.2137
-13.8101
-9.65604
-7.20186
-9.86524
-6.39371
-10.7248
-7.78102
-4.2021
-1.69205
-4.63044
-0.77755
-4.37795
-1.72091
-23.8746
-5.20912
-33.8276
-13.2032
-23.9556
-10.4741
-39.8432
-17.6947
-30.4894
-27.7816
-27.4348
-24.8127
-41.945
-33.5191
-30.4056
-10.0837
-27.7076
-7.33258
-49.5462
-6.91143
-52.6611
-22.2471
-30.7263
-32.2065
-49.6148
-36.8066
-60.5167
-64.251
-56.7831
-5.1307
-79.8455
-94.2318
-141.028
-72.2646
-145.21
-72.2804
-74.3998
-70.8155
-156.966
-139.572
-161.082
-167.249
-6.32488
-54.296
-28.2608
-73.0771
-139.428
-79.0198
-65.0585
-69.0153
-159.523
-162.901
-173.133
-21.1937
3.05565
-23.3111
1.59793
-59.2805
62.2961
-37.4375
-27.0984
-25.6737
-73.4544
-99.9286
-81.5663
-24.7035
14.1965
-9.03114
31.4837
-40.9021
14.3083
-7.59795
-18.906
-13.7013
-13.9814
-40.1784
-56.266
-14.1681
-21.0195
10.5208
3.47585
8.79407
13.5858
11.8196
10.8339
10.4417
3.29507
7.82933
3.75628
8.65187
3.11983
8.57355
5.0811
-3.6046
1.35463
-1.47566
-2.54184
-5.39731
0.1499
-2.53344
-3.3497
-1.39941
-2.25992
-6.54825
-5.02652
-4.2517
-3.91015
-1.32902
-1.89335
-0.55214
-3.89111
-1.79448
-2.91843
-1.40252
8.4865
9.43391
9.46628
3.35985
8.69947
3.98969
-1.13832
1.2612
-1.90766
-2.12434
-2.89856
-2.53837
-0.419477
-2.33451
-0.609967
-12.2153
-14.2159
-14.2653
-10.1442
-9.59911
-5.10955
-4.7154
-0.168379
-13.6334
-11.712
-17.2893
-11.7368
-10.3612
-11.2126
-11.811
-12.9945
-11.9281
-14.0595
-12.347
-13.8885
-13.3282
-11.4382
-14.1062
-10.2467
-14.6118
-13.131
-9.88042
-6.38212
-9.40444
-5.21367
-10.0119
-7.10086
-4.69934
-0.770489
-4.54681
-0.220396
-4.0537
-1.55178
-55.3535
-10.5133
-70.3874
-44.2825
-96.512
-82.3628
-127.305
-48.75
-76.2731
-102.959
-114.64
-120.568
-131.085
-202.866
-82.3758
-92.1032
-108.907
6.63202
-95.5845
-127.97
-111.206
-125.819
-155.971
-195.555
-129.178
-134.273
-126.011
-85.6352
-146.059
-132.345
434.293
436.488
-177.467
-161.829
-162.955
-134.838
-138.531
435.793
-72.195
-133.837
-63.4236
-125.056
-50.8168
-40.6423
-5.52807
-28.2027
-7.86662
-26.3212
-5.31907
-24.8587
-1.02343
-94.8779
150.559
-125.359
336.165
429.913
349.334
425.869
-149.307
-97.4571
-140.911
435.435
436.388
432.661
435.421
-163.807
-156.671
-163.218
435.704
387.116
435.041
364.508
-62.6051
-146.843
-47.8982
417.958
-35.5937
442.104
-7.51378
-21.7949
-4.59267
-24.6652
-0.0503779
2.27908
-96.8809
129.714
-117.906
349.342
426.046
341.077
423.675
-105.797
-137.494
432.48
434.736
432.093
434.801
-159.713
-162.349
-182.868
434.474
401.179
434.329
359.149
-46.5634
-157.657
-72.9889
427.429
405.063
-40.8437
-4.19102
-32.8966
-7.07877
3.45851
-25.079
0.478804
-135.417
-70.3152
-114.417
432.439
434.973
431.179
-182.066
-137.704
-188.419
434.474
384.86
-156.191
-87.5127
-162.152
-101.744
416.094
-46.4059
-152.337
-75.4782
-8.30409
-48.9629
-10.7413
-27.9386
-0.379409
-40.2799
-2.47034
-87.6486
-53.1758
-90.9574
-113.972
-79.5083
-96.7545
-175.102
-113.721
-151.041
-121.682
-150.071
-102.719
-129.96
41.5795
57.1646
47.6688
112.103
37.9046
81.7184
42.6578
-77.2413
35.8917
-54.2852
6.3695
-67.9455
-124.8
-52.1219
-89.2342
-90.101
-123.285
-133.941
-94.7974
-92.8674
-115.799
-144.59
-130.713
-141.435
-26.8122
12.8189
-6.35174
1.92567
-35.8557
7.83321
-15.4949
-62.588
-22.047
-31.3089
-74.0992
-111.594
-40.5554
-57.4277
9.94549
13.4777
11.5837
9.9447
10.0074
5.59152
8.96023
4.43106
8.73957
3.22874
-1.8568
-0.735153
-3.30862
0.901683
-1.67524
-3.16275
-4.74586
-3.92741
-1.69731
-2.0094
-1.34726
-3.14205
-1.48066
-1.81389
-0.573024
8.66227
9.56309
8.88689
2.48195
1.22782
-1.22478
-0.912722
-1.54731
-1.69341
-0.289069
-17.8811
-12.332
-9.87009
-8.12196
-12.5026
-14.6466
-13.245
-19.7149
-14.6272
-9.97685
-19.3074
-11.2844
-9.10456
-4.89825
-7.10709
-4.72706
-5.17504
-0.185781
-3.62292
-0.59827
-11.3882
-9.29949
-10.2607
-8.57875
-9.37417
-6.89959
-9.08865
-14.8644
-13.0728
-15.7211
-13.8527
-18.5892
-14.0216
-18.4152
-11.4918
-16.7154
-14.7064
-17.9728
-14.2499
-19.2325
-16.3883
-5.72622
-11.0867
-7.9062
-7.93084
-6.03809
-10.631
-7.45119
-0.609308
-4.51435
-1.78413
-3.61635
-1.47752
-4.54568
-1.86358
-147.311
-111.882
-129.117
-119.957
-210.263
438.371
-184.988
-149.249
-203.221
-226.932
-188.228
-183.244
-130.273
-130.638
438.24
438.755
432.256
436.366
-188.715
-130.569
-131.8
438.541
-173.635
434.631
375.264
-62.3862
-124.666
-42.5263
-137.287
-33.8049
422.75
317.091
-4.63737
-18.4559
0.211997
-14.536
0.791681
314.386
433.883
436.739
432.783
435.26
430.121
433.452
-134.752
435.864
460.806
433.452
405.354
432.614
415.052
-43.3421
424.482
406.337
314.532
418.664
345.295
1.11814
-23.8378
0.786424
316.561
19.0448
274.95
7.88868
435.815
431.754
433.571
427.367
432.135
426.524
430.764
401.937
435.04
343.163
432.282
412.495
431.46
441.3
451.151
348.192
438.711
311.38
443.722
246.411
0.726336
326.04
2.09036
244.447
2.12756
303.456
1.81853
432.894
431.018
434.423
425.817
430.229
425.351
430.049
403.23
433.628
391.662
431.454
433.428
429.76
474.263
319.74
411.42
322.636
424.774
298.023
371.415
292.011
2.47168
1.80634
295.994
293.137
5.78413
434.553
431.144
434.552
426.445
430.779
428.72
431.98
373.365
433.884
-157.443
430.244
414.943
429.719
376.8
-149.482
-63.8007
352.615
224.821
410.409
277.964
1.43829
-44.8213
-0.620137
238.106
5.89354
310.371
-7.00895
434.318
-83.447
426.672
432.348
432.919
433.36
-154.742
-116.313
431.742
548.63
432.431
410.272
-71.5515
-94.3547
-103.316
403.642
318.65
394.948
-78.2284
-2.91895
-72.4331
-16.3447
300.325
-13.4226
-58.8847
-14.7508
-52.1123
-62.8092
430.401
433.577
-37.7902
-70.3459
-90.8317
-120.07
433.02
409.7
-79.8806
-126.489
-129.968
-139.416
-134.11
-85.8962
-138.589
-130.261
10.1274
13.6979
12.7018
2.26913
9.00803
-3.49247
-1.73069
-5.35737
-3.64678
-1.59622
-1.24849
-1.23371
-0.50521
-1.58876
-0.513602
-7.84989
-7.31463
-5.7239
-4.06059
-12.6943
-22.1008
-6.04609
-17.6156
-21.193
-9.12933
-18.3027
-14.0864
-4.00583
-4.43743
-9.83176
-5.29627
-3.33355
-0.614819
-4.13703
-0.756061
-6.1716
-3.95258
-7.63073
-3.21106
-2.93756
-0.633103
0.0125669
-22.1759
-13.0861
-24.3734
-5.67814
-18.1802
-5.71547
-26.803
-11.3255
-23.9822
-17.5009
-19.0663
-15.561
-28.3282
-13.6545
-5.55147
-13.5293
-6.69467
-12.0226
-6.04021
-7.0568
-8.5853
-25.5247
-16.6226
-33.1626
-6.75491
-29.0692
-23.318
-20.3791
-35.5525
-31.1764
-30.2476
-14.8311
-42.1925
-37.5648
-33.8774
-56.8285
-23.6666
-65.2874
-43.825
-124.174
-42.2539
-68.0646
-62.5308
-61.1102
-51.014
-134.556
-103.131
-119.04
-144.468
-186.636
-75.6183
-166.997
-145.177
-204.036
-108.986
-200.228
-164.424
-189.109
-176.217
-225.484
-167.396
-216.412
438.277
439.049
-210.831
433.624
437.77
-165.871
438.646
-168.293
-217.099
-146.619
437.075
458.408
-40.2267
-132.391
-31.163
-100.731
-22.5741
405.743
292.921
-2.95338
-9.53116
0.874213
-12.9161
2.19804
304.832
-2.35486
435.761
416.844
436.448
370.871
436.102
387.341
-28.5945
432.166
314.603
352.752
273.472
381.232
154.246
1.30348
304.166
301.95
-4.84239
286.873
-0.316308
422.26
432.839
361.481
436.13
411.485
433.506
451.185
309.554
417.281
300.127
419.982
274.114
438.846
258.329
1.47974
334.75
7.0657
294.248
-1.66509
256.491
-92.4584
414.05
431.52
439.413
432.203
557.53
431.083
619.474
318.821
442.779
222.773
423.39
258.749
434.24
275.119
-0.469297
303.14
4.27608
145.118
270.223
-39.7146
429.594
429.815
416.534
432.136
466.83
431.699
428.093
273.62
365.227
304.62
428.77
3.30236
437.003
194.937
267.337
1.04599
193.878
-81.8748
376.63
430.611
442.11
431.34
442.65
431.355
425.976
274.908
422.996
297
451.94
230.906
384.053
227.804
5.29408
334.215
-2.3576
160.799
264.112
-1.14556
412.231
432.406
408.172
430.907
209.228
429.026
408.406
290.271
416.85
399.817
146.287
430.45
285.208
-24.4091
-10.914
272.729
-0.492778
256.812
-2.56367
433.458
-30.4023
-68.2532
430.512
429.609
430.023
433.017
419.648
-79.3928
-125.557
429.286
408.519
432.146
-80.2646
-137.11
-116.075
431.003
284.337
-126.445
-91.5469
-19.4243
-82.5132
-12.6447
311.75
-5.17987
-74.2702
-15.3443
-66.6286
-28.6072
-54.3284
428.987
-21.6985
-62.2956
-130.852
-74.4716
-117.354
-122.162
-82.5552
-115.074
-133.761
-145.87
-139.919
-124.88
-101.768
-143.129
-141.496
-33.4854
7.32301
-13.6855
-4.74371
-59.2285
26.4603
-42.0285
-108.79
-38.6129
-54.8794
-70.043
-122.562
-45.17
-67.6318
-6.23211
11.9201
-6.5754
33.2508
-35.576
18.8482
-29.1894
-11.151
-15.2213
-39.2104
-53.2781
-27.5088
-6.38767
12.7715
-5.09942
13.0001
-23.4568
13.4087
-8.63941
-12.5469
-6.77989
-5.75074
-21.6696
-22.067
-12.1533
-9.99018
15.1988
15.4955
15.2535
7.36781
10.7621
-6.70081
11.5601
-5.39631
9.06489
-2.13027
-4.81476
-8.50285
-8.44101
-4.4801
-4.10434
-0.991749
-5.76075
-1.41235
-1.81054
-1.31037
-0.98961
-2.22345
-1.08679
-1.27659
-0.414252
10.4752
8.88832
-1.68122
-3.05589
-3.30449
-2.03625
-1.4389
-1.32941
-0.334524
-6.02549
-5.92435
-7.67178
-6.88171
-6.79508
-9.11374
-13.0908
-7.6761
-10.6038
-8.40268
-11.4646
-14.9308
-13.1231
-11.1453
-9.33931
-13.8973
-12.8657
-8.63491
-6.03082
-8.46013
-5.347
-9.71473
-7.02481
-3.94201
-1.65176
-4.6214
-0.18005
-4.45267
-1.83273
-17.4358
-5.83778
-22.0125
-7.64236
-12.7413
-8.13315
-15.4504
-16.2124
-23.3426
-17.5771
-16.2415
-15.8008
-20.343
-19.1794
-25.6728
-7.39484
-20.2347
-11.6275
-29.6441
-18.9209
-26.7742
-26.3469
-38.3175
-35.1055
-44.7799
-143.967
-14.9334
-52.6562
-55.4676
-152.283
-148.69
-112.757
-59.7655
-57.627
-165.979
-143.064
-37.7785
232.494
-141.3
113.89
-54.608
312.852
432.303
-161.059
-144.383
-198.829
-78.8117
-163.494
436.352
439.095
-178.807
-206.678
-163.124
-179.478
-156.749
438.598
-43.4937
-113.038
-26.0283
-145.781
-62.6237
-23.6658
-3.45141
-13.7881
-0.292475
-16.8978
-3.19791
-8.21432
1.48884
-203.681
435.176
436.758
436.384
438.453
433.244
435.927
-145.186
436.435
402.457
437.658
420.461
435.033
420.235
-18.4697
405.362
290.865
429.615
-9.93823
426.583
216.367
2.78491
293.036
2.46064
-3.98951
3.05781
271.15
1.33503
557.57
434.722
426.792
435.044
357.666
434.559
363.126
268.446
414.86
253.633
415.766
277.696
443.288
20.0392
2.22343
318.936
309.441
4.53718
229.317
-115.527
384.119
436.317
418.601
434.702
439.648
428.77
491.24
203.241
438.419
265.022
437.466
138.878
402.119
166.786
0.103053
355.005
-39.6367
209.375
325.916
582.608
430.089
593.263
426.247
436.928
420.638
372.534
222.586
431.669
209.094
340.7
164.227
325.915
268.762
-47.4904
231.233
-34.6537
225.033
270.705
529.733
416.314
412.638
416.074
409.954
414.312
411.394
413.756
428.356
421.42
428.833
418.028
420.884
418.669
421.683
471.409
430.655
490.949
419.774
373.479
421.013
349.215
173.914
451.033
69.3443
328.588
267.31
274.955
240.098
163.118
267.671
493.433
239.189
759.714
453.365
432.809
210.564
424.148
394.081
428.45
430.978
209.54
394.429
192.016
264.326
183.464
440.662
234.484
373.23
-1.80176
210.215
718.137
263.542
390.993
428.138
409.531
430.16
549.062
428.504
402.273
180.84
427.62
326.056
438.064
231.136
425.636
209.841
-30.141
283.539
-1.16629
313.563
233.551
-2.78997
429.647
431.899
432.953
424.925
428.574
430.779
431.891
439.298
432.108
428.072
443.272
430.945
356.465
301.405
-85.834
423.476
234.254
342.369
295.241
-7.85377
-70.6096
-16.0064
259.539
-25.1879
297.058
-17.4387
421.561
185.078
25.2995
336.066
420.016
199.134
-43.1483
433.261
-38.0926
-65.1924
432.823
433.59
-49.309
-53.3407
-122.982
-83.5976
-118.251
432.242
324.233
-59.6619
-120.512
-93.259
-125.671
-129.531
388.008
299.516
-130.433
-114.762
-16.4856
-79.571
-22.8577
-18.6524
-69.9201
-20.4398
-72.1044
49.5372
-30.4293
-52.2553
21.4541
-44.8372
-124.266
-95.9989
-71.1445
-140.662
-59.845
-118.691
18.2106
-21.2682
23.7241
-29.2379
12.692
-7.47411
-22.1793
-25.0197
-42.8988
-77.8502
-21.7877
-30.5043
-11.9327
10.366
-6.00515
11.0377
-1.38083
9.62955
0.258516
-18.341
-9.18515
-10.086
-12.8932
-16.9958
-7.9028
-11.4633
13.1443
7.41557
10.4197
14.1765
12.4377
9.13189
9.27052
-0.972303
7.92505
-0.886638
8.05653
1.43168
7.82911
2.18139
-6.98348
-3.20851
-3.8952
-4.13439
-6.42926
-0.311965
-3.29622
-3.979
-2.58336
-2.20041
-6.61187
-5.34653
-3.27134
-3.13556
-1.76208
-1.86786
-0.554421
-4.1505
-1.86237
-2.62695
-0.67052
9.80145
6.20516
8.79905
-0.830134
8.08958
1.82455
-2.93973
0.530603
-2.67766
-1.93621
-2.69703
-2.99569
-0.404586
-2.68613
-0.40807
-9.69852
-10.4987
-9.08594
-8.40756
-5.63484
-4.75452
-0.225345
-7.66427
-6.2457
-6.5703
-14.2365
-7.53556
-5.87966
-6.34148
-10.3286
-7.61165
-10.5847
-7.48466
-9.77113
-7.34051
-10.2095
-9.40808
-13.7819
-12.8876
-10.7752
-9.91658
-13.6059
-12.9004
-5.4756
-10.6734
-7.911
-8.65602
-6.11187
-10.9481
-8.18189
-0.199044
-4.78484
-1.92878
-4.54626
-0.727282
-4.88022
-1.95263
-166.842
436.955
438.888
-81.3424
-153.054
438.613
438.561
-156.518
438.443
-174.138
-146.617
438.034
430.769
-60.781
-24.2777
-119.299
-61.857
434.554
-34.0138
-4.37653
-11.7953
1.7404
-29.2708
-5.54632
-23.1047
-0.712484
438.506
432.037
435.378
437.612