/*--------------------------------*- C++ -*----------------------------------*\
| =========                 |                                                 |
| \\      /  F ield         | OpenFOAM: The Open Source CFD Toolbox           |
|  \\    /   O peration     | Version:  4.0                                   |
|   \\  /    A nd           | Web:      www.OpenFOAM.org                      |
|    \\/     M anipulation  |                                                 |
\*---------------------------------------------------------------------------*/
FoamFile
{
    version     2.0;
    format      ascii;
    class       volScalarField;
    location    "1";
    object      p;
}
// * * * * * * * * * * * * * * * * * * * * * * * * * * * * * * * * * * * * * //

dimensions      [0 2 -2 0 0 0 0];

internalField   nonuniform List<scalar> 
146404
(
0.266699
0.111021
2.42003
0.749047
0.44861
0.247471
0.0905081
1.83985
0.977514
0.209163
0.0780525
2.53338
0.902013
0.542143
0.255
0.090364
0.550698
0.288616
0.11251
1.49289
0.726699
0.464521
0.256184
0.0938761
0.925257
0.628561
0.421235
0.236864
0.0835422
0.6762
0.532769
0.365166
0.19032
0.0520975
0.921157
0.629312
0.406895
0.208594
0.0341899
1.49193
0.945848
0.185135
0.0319307
0.967484
0.797559
0.487956
0.166792
0.0471818
1.06071
0.763784
0.495501
0.237658
0.0793436
1.12687
0.774661
0.509271
0.275336
0.0933078
1.68026
0.859568
0.542501
0.296858
0.109321
1.3209
0.194572
0.0551937
0.956945
0.677626
0.429095
0.207165
0.0346972
0.688226
0.542227
0.365704
0.183627
0.0479741
0.68914
0.539622
0.362523
0.18086
0.0484613
0.926662
0.6304
0.404648
0.199516
0.0313818
1.52796
0.9027
0.174726
0.0293376
1.03293
0.801792
0.48675
0.165889
0.0443408
0.792635
0.658063
0.432454
0.203385
0.0513229
0.997302
0.74468
0.493345
0.248774
0.0401422
1.12943
0.839111
0.543053
0.232089
0.064085
1.43034
0.999133
0.256581
0.0673001
0.803117
0.495263
0.263184
0.0925619
0.971992
0.62708
0.381493
0.142671
0.0412719
1.00615
0.722824
0.41005
0.148912
0.0285178
1.26936
0.798806
0.463916
0.177027
0.0263876
0.933039
0.661318
0.414983
0.19951
0.0346006
0.943771
0.661145
0.412648
0.155437
0.0416961
1.07403
0.74005
0.432635
0.185207
0.0289991
1.70009
1.0249
0.170297
0.0264584
1.24716
0.914203
0.526502
0.207133
0.0339463
1.07769
0.795849
0.508082
0.23928
0.0363235
1.11781
0.811762
0.513321
0.236376
0.029649
1.45923
0.89645
0.556759
0.22431
0.0297505
0.989153
0.688109
0.436593
0.213828
0.0386132
0.999993
0.661886
0.436021
0.237412
0.0692793
0.699632
0.463169
0.271147
0.106677
0.938482
0.61309
0.389902
0.202608
0.0716955
0.654157
0.507861
0.331261
0.163062
0.0447469
0.874251
0.607623
0.375389
0.180583
0.0324099
1.34064
0.748875
0.418765
0.179053
0.0257182
1.488
0.850718
0.476725
0.202882
0.0413759
1.93996
0.854944
0.447411
0.190263
0.0563899
2.24874
0.93667
0.479741
0.196413
0.0461119
2.76038
1.30948
0.175238
0.0357971
2.39299
1.11063
0.586491
0.239877
0.0504523
1.65352
0.991236
0.556392
0.249639
0.0555836
1.60135
1.01173
0.587764
0.250541
0.0283564
1.11116
0.836858
0.475181
0.20478
0.0345996
0.689598
0.551084
0.374761
0.188839
0.0495391
0.799838
0.546643
0.375805
0.198222
0.0544453
1.23947
0.600348
0.415744
0.235751
0.0813542
1.46991
0.71177
0.435137
0.22128
0.0812211
0.770181
0.6091
0.38533
0.145197
0.0414867
0.668505
0.512267
0.329387
0.161983
0.0440426
0.89034
0.612184
0.322748
0.162719
0.0435588
1.16574
0.771745
0.383839
0.181323
0.0488002
2.71513
1.12692
0.462695
0.183625
0.0416316
3.73303
4.01108
0.213185
0.0590053
4.10317
4.06465
4.00924
3.14527
4.14701
4.07908
4.01726
3.10744
1.61541
4.04909
4.03635
3.98772
3.19788
3.63891
3.90037
0.265399
0.0576704
2.5998
0.196908
0.0477801
1.13445
0.801602
0.455785
0.160278
0.0445615
0.745899
0.57245
0.376751
0.182378
0.0473079
0.785306
0.598105
0.411063
0.216496
0.0395963
0.922271
0.663062
0.437368
0.23345
0.0661798
1.51128
0.744888
0.474235
0.255804
0.0906406
1.21137
0.743959
0.436415
0.197001
0.0542862
0.997435
0.709623
0.413123
0.148735
0.0280618
0.92701
0.626369
0.371691
0.173229
0.0293162
1.05138
0.701161
0.376071
0.183625
0.0512145
2.49199
0.844215
0.400895
0.201806
0.0531265
3.98867
4.06936
4.05485
0.0534302
4.22673
4.1324
4.04319
3.16134
1.55753
4.26144
4.13954
4.03045
3.33284
1.57427
4.25062
4.13041
4.02056
3.34915
1.63148
4.18127
4.10382
4.01133
3.35874
1.56261
4.21348
4.06457
4.00112
3.19119
1.53591
3.56386
3.98214
3.98676
3.4302
0.0658137
2.26182
0.939817
0.485394
0.183911
0.0600614
1.06439
0.726777
0.432086
0.203847
0.0314562
1.00687
0.70201
0.436041
0.203205
0.0277054
1.29009
0.76024
0.469011
0.224837
0.0278161
1.55921
0.835066
0.495736
0.223236
0.0474598
0.932318
0.613303
0.383489
0.176436
0.0326495
1.15786
0.668974
0.38382
0.169527
0.0281538
1.33927
0.157754
0.0245562
2.02991
0.98732
0.451951
0.170654
0.0399071
3.69916
0.444317
0.187603
0.0596485
4.23622
4.14456
4.06492
3.19436
1.52324
4.32002
4.16727
4.05428
3.56022
1.40138
4.39992
4.17205
3.98082
3.54684
1.26819
4.42455
4.16369
3.85562
3.28203
1.07601
4.28829
4.13123
3.94073
3.5659
1.36143
4.17937
4.09937
3.98805
3.58467
1.49516
4.21592
4.0576
3.98249
3.21462
1.55247
3.6032
3.9081
3.97645
0.218788
0.0611803
1.8256
1.10272
0.499886
0.201274
0.0271165
1.45021
0.955268
0.186395
0.0296647
1.27787
0.787064
0.458363
0.195893
0.0335697
1.08302
0.72966
0.441575
0.210635
0.0561435
0.822412
0.491763
0.251736
0.0868191
0.607104
0.389192
0.230137
0.0933539
0.580479
0.459287
0.316887
0.166574
0.0459264
0.626998
0.477886
0.321015
0.160736
0.0414717
0.933865
0.623834
0.374079
0.177016
0.0291752
2.11082
0.892335
0.440429
0.156178
0.0415797
4.07852
4.07023
4.03456
3.40944
0.0483764
4.28845
4.16579
4.06545
3.26023
1.45207
4.41592
4.19117
4.00958
3.53465
1.05259
4.73299
4.19702
3.73708
2.58756
0.810254
5.34049
4.11545
3.02363
1.98289
0.539805
4.45464
4.16606
3.48257
2.38001
0.806936
4.25476
4.12738
3.94275
3.41003
1.00223
4.27612
4.09849
4.00187
3.29805
1.36211
3.77777
4.01492
3.98304
3.0982
1.52998
2.17672
1.08675
0.459074
0.213379
0.0544217
0.891611
0.703542
0.431261
0.166407
0.0464847
0.682251
0.543094
0.367245
0.186542
0.0511209
0.947227
0.629552
0.413593
0.225169
0.0744469
2.21402
0.760978
0.465284
0.267555
0.107768
2.22735
0.591071
0.365557
0.222002
0.091726
0.582419
0.46087
0.317926
0.166874
0.045888
0.631867
0.480024
0.321336
0.16091
0.0414544
0.919429
0.616945
0.374136
0.183031
0.0292423
2.12926
0.829117
0.430595
0.189446
0.04189
4.11733
4.10541
4.02517
3.18744
4.29536
4.17337
4.06563
3.38595
1.82324
4.43186
4.20619
3.97351
3.49295
1.00719
4.76316
4.15546
3.06485
2.00985
0.716907
4.16885
3.79572
2.6166
1.73148
0.625447
4.79336
4.11908
2.92888
1.93659
0.735336
4.27706
4.14699
3.92219
3.33896
1.03456
4.30912
4.12677
4.02899
3.38176
1.38302
3.80377
4.0301
4.0136
3.35991
1.54331
2.21265
1.05515
0.433166
0.22531
0.0677804
0.74023
0.56545
0.373903
0.185088
0.0493494
0.668328
0.538722
0.370225
0.191745
0.0523278
0.9199
0.608493
0.40861
0.229506
0.0801165
2.16436
0.685259
0.433032
0.255692
0.106433
0.621716
0.396443
0.228564
0.0918931
0.80641
0.552125
0.357322
0.187053
0.0326553
0.841202
0.559364
0.353893
0.174226
0.0280982
1.03678
0.6941
0.387478
0.165993
0.0248252
2.2266
0.945891
0.446646
0.164263
0.0391803
3.96908
4.07553
4.03643
3.19508
0.0481677
4.25439
4.16752
4.07018
3.2904
1.54946
4.3402
4.19569
4.03783
3.62758
1.09598
4.46643
4.22573
3.73616
2.62002
0.773088
4.7568
4.16338
3.02804
1.97189
0.720971
4.48908
4.20806
3.6667
2.49121
0.750914
4.26773
4.16802
4.01086
3.66317
1.04264
4.31452
4.14088
4.05893
3.40374
1.49338
3.67576
4.06296
4.03702
3.32043
1.68262
2.11757
1.09789
0.489118
0.221542
0.0272894
1.00941
0.677322
0.420492
0.200843
0.030963
0.899232
0.630021
0.413534
0.210384
0.0346146
0.986253
0.665661
0.429523
0.227629
0.0656567
2.19521
0.762586
0.468121
0.256327
0.118762
1.24269
0.685893
0.397289
0.192592
0.0465274
1.35174
0.745246
0.403623
0.155961
0.0262255
1.33726
0.166908
0.0291556
1.52259
0.970402
0.470136
0.167337
0.0464568
3.49998
0.462142
0.200597
0.0586079
4.30844
4.1495
4.07371
3.23438
1.59327
4.26709
4.18083
4.07721
3.47182
1.20983
4.30711
4.19044
4.0284
3.52394
1.3632
4.3075
4.1911
3.9859
3.50701
1.14581
4.2771
4.18434
4.0253
3.53153
1.43404
4.34673
4.17293
4.06658
3.50685
1.54214
4.20362
4.13121
4.07244
3.31408
1.61207
3.65834
4.04596
4.05871
0.203841
0.0584088
1.55633
0.970283
0.484128
0.195902
0.0300698
1.37922
0.929497
0.190382
0.0272739
1.34272
0.816609
0.469711
0.208727
0.0278628
1.3564
0.773226
0.466327
0.222581
0.0494184
0.8195
0.490072
0.253795
0.0864131
1.30177
0.811709
0.474168
0.192253
0.0616678
0.941175
0.66712
0.425156
0.204531
0.0352745
0.713781
0.549615
0.359513
0.172156
0.0442911
0.98549
0.68362
0.410285
0.154656
0.0422831
2.2061
0.898511
0.454339
0.185004
0.0550233
3.96339
4.0758
4.07072
0.0614582
4.31501
4.15095
4.08385
3.27626
1.4922
4.34394
4.17102
4.0801
3.31119
1.39416
4.35617
4.17749
4.09312
3.47443
1.1384
4.33279
4.166
4.08328
3.43064
1.62806
4.20809
4.14086
4.07579
3.22765
1.47162
3.90626
4.08727
4.07589
3.08372
0.0565416
1.89125
0.763703
0.450978
0.207543
0.0337437
0.727137
0.560396
0.373063
0.181347
0.0446091
0.820192
0.621505
0.412576
0.205686
0.038371
0.981967
0.701678
0.432318
0.213247
0.0518974
1.50009
0.815925
0.47955
0.225806
0.0650621
2.13639
0.76925
0.464927
0.249826
0.0882474
0.896732
0.644717
0.422374
0.225741
0.0660789
0.668975
0.53717
0.356996
0.175913
0.0473814
0.908775
0.643975
0.407335
0.190161
0.0335661
1.138
0.787273
0.44371
0.186658
0.0265096
2.30086
1.21899
0.508001
0.182018
0.0406063
3.34361
4.05183
0.507342
0.227418
0.0569349
4.03466
4.10323
4.08071
3.23467
3.85115
4.1181
4.0817
3.34951
1.64845
4.07255
4.10782
4.07593
3.2924
3.54573
4.0553
0.224191
0.0572577
2.19664
0.18524
0.0242822
1.05445
0.73798
0.445387
0.202849
0.0304932
0.6763
0.540286
0.368701
0.185841
0.0475168
0.664306
0.534265
0.369513
0.194383
0.0529913
0.932625
0.623986
0.414454
0.228721
0.0756108
2.00552
0.742698
0.467556
0.254044
0.0941589
1.30049
0.677514
0.415546
0.224683
0.0793126
0.818832
0.611388
0.397133
0.155974
0.0446478
0.960217
0.668638
0.409898
0.178872
0.0301327
1.42494
0.809725
0.467457
0.187024
0.0266264
1.07615
0.747843
0.448868
0.201999
0.0332391
1.08869
0.75767
0.451965
0.217709
0.0359109
1.46092
0.827011
0.465193
0.215364
0.0511294
2.15441
1.17901
0.200162
0.0479141
1.51051
0.932437
0.497007
0.200105
0.0316409
1.19065
0.843922
0.477497
0.211294
0.0315837
1.2064
0.91737
0.509214
0.210304
0.0251074
1.31713
0.856608
0.476425
0.186251
0.0257642
0.890897
0.634203
0.410809
0.207763
0.0358973
0.86148
0.611392
0.411784
0.225942
0.0661898
1.23359
0.642965
0.431113
0.249558
0.0941778
1.03725
0.694961
0.418716
0.193276
0.0648497
1.29829
0.762158
0.441963
0.186411
0.0501839
1.24371
0.762071
0.452962
0.199938
0.0349815
0.696385
0.548116
0.372813
0.18769
0.0482791
0.696127
0.545753
0.37349
0.188066
0.0483405
0.972852
0.662775
0.422179
0.20696
0.0320882
1.53706
0.939091
0.186915
0.0285742
0.978646
0.778578
0.450712
0.146483
0.0401646
0.762521
0.59791
0.376599
0.176061
0.0450145
0.963973
0.695245
0.436831
0.205864
0.0325102
1.32484
0.800207
0.48091
0.201688
0.0270755
1.28278
0.752434
0.455438
0.213985
0.0448362
1.30943
0.718187
0.45575
0.243664
0.0766067
0.70852
0.46518
0.269492
0.105986
1.54266
0.205365
0.0741921
1.00202
0.700135
0.428927
0.224802
0.0665051
0.850369
0.610334
0.413832
0.227881
0.0746591
0.679823
0.537179
0.371511
0.193196
0.0520846
0.915609
0.624019
0.410274
0.206609
0.0333305
1.45288
0.849792
0.179807
0.0297826
0.904833
0.727437
0.424178
0.14883
0.0432448
0.912682
0.66147
0.352238
0.179265
0.0511282
0.95291
0.691677
0.420906
0.216858
0.0619904
1.09231
0.767794
0.462942
0.215109
0.0547561
1.54258
0.95541
0.51735
0.218207
0.058968
0.494915
0.248969
0.0826114
2.11977
0.773041
0.433335
0.251374
0.0963063
1.27384
0.676427
0.445006
0.257119
0.101031
0.924969
0.61285
0.413044
0.230366
0.0784036
1.02678
0.668583
0.424693
0.218138
0.0596166
1.4542
0.87178
0.192018
0.0473743
1.11293
0.770886
0.438506
0.187007
0.0615603
1.07082
0.714917
0.405919
0.211231
0.0731732
1.3672
0.744448
0.430816
0.23806
0.0893694
2.01822
0.796765
0.483915
0.255736
0.0939021
2.31773
0.776181
0.470989
0.257473
0.0944586
2.29694
0.949713
0.215009
0.0769607
2.41539
0.900568
0.50855
0.236111
0.0873425
0.248069
0.098887
0.486707
0.447208
0.29274
0.258003
0.126189
0.0996189
0.00893817
2.54884
1.04451
0.499417
0.931475
0.513352
0.45665
0.289936
0.477084
0.251987
0.256414
0.121968
0.226113
0.104539
0.0974679
0.0081092
0.0849226
0.00664496
2.57312
1.09157
1.0466
0.978092
0.951639
0.619426
0.560999
0.303084
0.216086
0.103302
0.260304
0.115255
0.0840248
0.00659424
0.0927823
0.00740079
1.00404
0.917042
0.615174
0.557576
0.307869
0.265162
0.119408
0.0957983
0.0078678
0.811863
0.753481
0.518044
0.477753
0.298621
0.264774
0.124205
0.10006
0.0075051
2.71971
0.806947
1.38283
0.783245
0.744403
0.513813
0.685055
0.515998
0.476178
0.298696
0.450706
0.314796
0.266844
0.125777
0.257733
0.144222
0.102394
0.00729444
0.0990805
0.0157956
1.34952
0.767029
1.20648
0.737565
0.67347
0.509407
0.636559
0.50176
0.445389
0.314479
0.427817
0.317213
0.257561
0.146146
0.248032
0.151081
0.100471
0.0162505
0.094599
0.0205188
2.41368
0.79484
0.948296
0.759299
0.943298
0.772421
0.733493
0.48908
0.608556
0.51972
0.619769
0.524683
0.29673
0.438212
0.300972
0.40601
0.334435
0.407768
0.332218
0.13528
0.251827
0.132945
0.227823
0.164993
0.22459
0.159086
0.0950229
0.0131064
0.078149
0.0320676
0.0742382
0.0307205
0.817381
1.77491
1.04648
1.02539
0.83019
1.38395
1.00222
0.512623
0.930111
0.51299
0.665232
0.537713
0.897652
0.499691
0.297764
0.476014
0.247927
0.418781
0.322306
0.463101
0.240658
0.126857
0.215281
0.109592
0.21888
0.135215
0.196588
0.108118
0.0122735
0.0793204
0.0106522
0.0622517
0.0248999
0.0544475
0.0225685
1.09268
2.4754
1.07538
1.49256
1.08578
1.27854
1.08864
0.937334
0.635607
0.957834
0.928723
0.636193
0.546437
0.312354
0.228773
0.530893
0.288897
0.107553
0.24667
0.1197
0.189286
0.102239
0.18977
0.121487
0.0104941
0.085694
0.0115254
0.0522997
0.0216736
0.0576991
0.0232142
1.00335
0.935754
1.17354
1.00832
1.16062
0.97707
0.628443
0.869764
0.596846
0.831671
0.661153
0.803271
0.648896
0.319703
0.552644
0.319826
0.497854
0.343492
0.498535
0.35435
0.126505
0.285397
0.132721
0.213421
0.146575
0.226466
0.156789
0.0123961
0.110543
0.00780718
0.0690592
0.0284159
0.0752146
0.0299975
1.39004
0.911656
1.44987
0.916866
0.596873
0.774865
0.639757
0.811633
0.613374
0.323823
0.501639
0.369753
0.531333
0.361224
0.135511
0.251643
0.166475
0.289997
0.160666
0.00846307
0.0868554
0.0288161
0.109096
0.0178829
1.49345
0.927417
2.42268
0.937848
0.81912
0.614544
0.863086
0.613563
0.534731
0.365703
0.537221
0.370192
0.296642
0.163208
0.300703
0.164225
0.111731
0.0177643
0.112291
0.0179939
2.27846
0.948432
0.874682
0.605849
0.553774
0.357123
0.310747
0.153461
0.119649
0.0115407
1.66051
0.963319
0.199247
0.100841
0.0730714
0.0097078
2.12595
0.816983
1.56752
0.96054
1.09571
0.880944
0.756048
0.531127
0.881081
0.717071
0.572677
0.46913
0.30706
0.252633
0.444614
0.328515
0.254719
0.128774
0.212897
0.10307
0.221689
0.132026
0.0922009
0.0117917
0.0711862
0.0114262
0.0667007
0.0217265
0.824585
0.993168
0.788817
0.985117
0.817277
0.897789
0.764115
0.526756
0.654969
0.539134
0.682876
0.556041
0.645667
0.537899
0.308711
0.43071
0.332531
0.436758
0.328411
0.426147
0.329941
0.132181
0.238106
0.156077
0.225682
0.13729
0.229036
0.146812
0.0125759
0.0819347
0.0261811
0.0643455
0.0244327
0.0681866
0.026115
0.528431
0.885552
0.496772
0.621554
0.525646
0.850398
0.490823
0.325987
0.460451
0.238731
0.404016
0.325019
0.454595
0.232053
0.91778
0.630866
0.897604
0.917688
0.628173
0.22643
0.525162
0.276151
0.219024
0.520881
0.267874
0.922646
1.60552
0.954763
1.02134
0.887375
1.09932
0.930351
0.97653
1.19901
0.985772
1.62635
1.06031
0.622818
0.82752
0.670804
0.937879
0.654957
0.367943
0.522546
0.385252
0.565788
0.336991
0.160044
0.259904
0.159739
0.263142
0.147997
0.0175289
0.0826746
0.0266919
0.0941541
0.0144193
1.68758
1.09768
1.00209
0.645378
0.813281
0.547859
0.579308
0.313081
0.497236
0.302351
0.264573
0.126537
0.261086
0.116903
0.0885188
0.0139096
0.0915856
0.00862815
1.46079
0.770472
0.655753
0.486562
0.406802
0.260827
0.196766
0.115645
0.0727276
0.0159788
1.516
0.958866
1.32851
0.777006
1.09107
0.882127
0.88653
0.644457
0.513189
0.735612
0.494467
0.207479
0.388704
0.272975
0.411939
0.230671
0.186082
0.0986533
0.174273
0.123725
0.159391
0.115717
0.0683759
0.011366
0.0594049
0.0247751
0.0557027
0.023741
0.736126
0.54293
0.758971
0.492261
0.806454
0.511662
0.457133
0.299242
0.417786
0.221978
0.465012
0.225697
0.531467
0.855061
0.491932
0.658987
0.546351
0.94095
0.518739
0.323294
0.455374
0.231174
0.411355
0.321384
0.477248
0.227179
0.930466
0.633047
0.993546
0.982574
0.663106
0.218109
0.523879
0.268526
0.214129
0.546576
0.278892
0.645165
0.979397
0.639634
0.856074
0.633973
0.814746
0.529964
0.345068
0.579709
0.30996
0.541067
0.335192
0.476085
0.280137
1.06934
2.92679
0.881228
1.30622
0.889198
1.09649
0.880528
0.799528
0.556714
0.76628
0.544689
0.716008
0.574034
0.305589
0.487315
0.31104
0.464908
0.300257
0.449424
0.337278
0.119835
0.25416
0.122095
0.227709
0.115363
0.230114
0.135717
0.0223843
0.0867694
0.0121447
0.0577797
0.0238413
0.0630729
0.0251034
0.869761
1.32258
0.830333
0.777398
0.545425
0.721203
0.542476
0.710289
0.509667
0.304245
0.464026
0.321738
0.467256
0.30882
0.118671
0.252832
0.13265
0.271261
0.134997
0.00872801
0.0821879
0.0169496
0.105091
0.0101704
1.41973
0.76016
0.66649
0.478146
0.418125
0.272361
0.2254
0.121305
0.0881244
0.0119761
1.29272
0.749038
1.27007
0.749494
0.935752
0.73899
0.613112
0.499149
0.65199
0.478881
0.604798
0.495225
0.385053
0.278498
0.411048
0.273636
0.38223
0.284031
0.18299
0.130441
0.219281
0.122526
0.186116
0.132963
0.0629746
0.0259317
0.0842248
0.014027
0.063865
0.0264449
0.491594
0.817099
0.509359
0.635672
0.508382
0.719484
0.497656
0.227179
0.465704
0.217404
0.382634
0.274786
0.41419
0.25173
0.510054
0.696524
0.530587
0.783576
0.486365
0.800501
0.555259
0.229152
0.434688
0.29731
0.431824
0.229433
0.463206
0.275706
0.580923
0.9718
0.526761
0.824497
0.617333
1.22522
0.57408
0.309714
0.483665
0.225935
0.448242
0.306844
0.518489
0.224214
1.03054
0.683866
1.30366
1.14537
0.721493
0.213005
0.562171
0.290724
0.212087
0.589405
0.307133
0.664476
0.858507
0.633579
0.950551
0.67899
0.936524
0.380809
0.540227
0.337435
0.572233
0.351565
0.247339
0.618475
0.761159
0.540219
0.891692
0.540894
0.717629
0.53345
0.305685
0.460554
0.293722
0.48439
0.254535
0.445715
0.295559
0.797494
2.57318
0.781448
0.871174
0.73647
0.953374
0.748778
0.547334
0.691357
0.514705
0.617
0.533572
0.612755
0.529336
0.338478
0.457075
0.315841
0.419027
0.342739
0.416904
0.343675
0.149964
0.264177
0.141778
0.231231
0.160838
0.234531
0.168669
0.0277975
0.100311
0.0144312
0.0687024
0.0321865
0.0782549
0.0328629
0.765106
1.27713
0.739076
0.505111
0.63731
0.509162
0.308909
0.436418
0.325164
0.137137
0.25447
0.155012
0.0105288
0.0961585
0.0212756
0.716596
0.486513
0.448586
0.260474
0.231138
0.108739
0.0896536
0.0057448
1.32687
0.75062
2.08712
0.780562
1.1421
0.776666
0.654283
0.483298
0.717732
0.486106
0.637772
0.513886
0.415525
0.276772
0.446499
0.261967
0.398654
0.293712
0.222498
0.124002
0.231537
0.109567
0.201554
0.134469
0.0856288
0.0140279
0.0894242
0.00629623
0.0706946
0.0236818
0.504967
0.869785
0.54876
0.792286
0.517871
1.09736
0.535165
0.252638
0.487494
0.260036
0.412039
0.259996
0.463366
0.217368
0.573126
0.833727
0.619156
1.19108
1.09579
0.580059
0.281454
0.456423
0.318044
0.204861
0.49584
0.272735
0.594903
0.904416
0.575681
0.559959
4.02132
4.03197
0.309186
0.474364
0.26588
0.503239
0.266698
4.01399
0.127055
0.176447
0.123235
0.208803
0.0931934
0.0796903
0.0227295
0.0557363
0.0231459
0.0605974
0.0148385
0.0610323
0.00792649
1.17843
2.69462
1.51825
3.89
3.97143
4.06996
4.01855
0.584406
1.21047
0.576841
4.02849
4.03189
4.0513
4.0446
0.27389
0.520363
0.224308
4.01275
3.13177
4.01804
3.22965
0.10174
0.17954
0.0701257
3.17337
0.078187
3.20223
0.0190111
0.03747
0.0168988
0.0624751
0.00728841
0.00493387
1.53432
2.49707
1.44113
4.08593
4.01898
3.98833
3.98012
1.19245
0.716185
4.0507
4.04168
4.02871
4.01598
0.212737
0.595557
0.31107
4.01415
3.28749
3.99536
3.22195
0.0678402
0.22137
0.0941442
3.15779
3.19674
0.0766264
0.0160921
0.042713
0.0175148
0.00490036
0.0608613
0.00644206
0.713065
1.03564
0.710638
4.00446
4.01172
3.89997
0.332333
0.576623
0.367355
3.99307
3.29997
0.31397
0.111038
0.240907
0.131402
3.22025
0.0809171
0.269119
0.103289
0.0205692
0.0557204
0.02187
0.0631114
0.00764007
0.0654549
0.010297
0.752994
0.978967
0.752552
0.675391
1.40848
0.703869
0.389657
0.560241
0.392626
0.608978
0.330469
0.632563
0.28837
1.16348
1.50736
1.02961
2.0161
1.50863
1.52546
1.06579
0.70329
0.919784
0.547754
0.892074
0.608066
0.348784
0.487669
0.255452
0.492897
0.294155
0.0885929
0.206024
0.079917
0.218803
0.0861558
0.205382
0.091141
0.555918
0.668617
0.556786
0.768079
0.604198
0.677371
0.565663
0.279682
0.421829
0.329964
0.45089
0.318226
0.426318
0.329178
0.712289
0.955835
0.762491
1.39758
0.822116
0.526217
0.622449
0.535666
0.714972
0.535288
0.343955
0.421033
0.344224
0.463991
0.319813
0.171281
0.234207
0.16631
0.258353
0.139704
0.0336115
0.0774645
0.0320798
0.0948151
0.0154112
1.97459
0.820554
0.748599
0.528012
0.48121
0.313354
0.261562
0.137926
0.100746
0.00937505
2.93872
0.792046
1.5175
0.861145
0.722482
0.490292
0.739455
0.519659
0.448577
0.262152
0.439477
0.271417
0.230112
0.108533
0.208266
0.106365
0.0880113
0.00642025
0.0724038
0.0118087
0.808038
0.94492
0.787734
1.31149
0.85397
0.961914
0.809193
0.502067
0.646755
0.518979
0.68759
0.542328
0.662374
0.527678
0.273286
0.398504
0.286943
0.410954
0.294372
0.400175
0.283727
0.114393
0.187729
0.130612
0.193984
0.120081
0.181586
0.122391
0.0110884
0.0628886
0.0252339
0.0627206
0.0204235
0.0581545
0.0238115
0.554441
1.02018
0.551298
0.830434
0.485618
4.03677
0.292821
0.45125
0.247522
0.36594
0.291627
0.226139
0.540334
0.568919
4.04235
4.06954
4.09962
4.06877
0.226114
0.503943
0.252855
4.05521
0.221115
4.02946
3.19812
0.0772741
0.211769
0.0848348
0.190412
0.0709909
3.14606
1.69728
0.0146645
0.0563255
0.00886531
0.0491209
0.00813254
1.58824
4.05185
4.0399
4.10216
4.07544
4.11209
4.07756
0.250798
4.00941
3.60804
4.0317
3.34083
4.03245
3.36837
0.0842
3.25164
3.14897
1.67311
3.27215
1.72334
0.00799056
0.0603887
0.00408217
1.57189
0.0222288
1.51377
0.0197535
4.04034
4.08205
4.05925
4.11686
4.07761
4.11425
4.07446
3.37105
4.02246
3.16648
4.03103
3.36097
4.02926
3.44289
3.15887
1.76812
3.30501
1.67412
3.29827
1.57329
0.00396427
1.64209
0.00297397
1.46179
0.0409804
1.50871
0.099016
4.05558
4.0707
4.02538
4.10925
4.06936
4.1
4.06184
3.25329
3.99081
3.35577
4.02615
3.50518
4.01428
3.56244
1.73
3.22806
1.72006
3.29869
1.67954
3.24216
1.637
0.00289895
0.00366228
1.62252
1.56454
0.0185352
4.01818
3.90998
4.0056
4.08487
4.05108
4.06294
4.03883
3.25504
3.99251
0.309748
4.01085
3.46317
4.00128
3.49803
0.265117
0.0901655
3.20323
1.52533
3.29975
1.62857
0.00430104
0.0668448
0.00771051
1.48088
0.0332253
1.52797
0.0623299
4.00499
1.4854
4.03978
4.02325
3.98389
4.00807
0.314234
0.278293
3.99368
3.77419
3.98675
3.50483
0.0862561
0.227385
0.0939363
3.26571
1.66973
3.34145
0.0804456
0.00919751
0.0567387
0.0141412
1.54425
0.0910389
0.0640962
0.00587185
0.898677
0.662712
3.9281
4.00298
0.958285
0.598678
0.47545
0.317726
3.98964
3.54853
0.488895
0.267102
0.100453
0.187622
0.120627
0.0828594
0.179097
0.128757
0.854853
1.48938
0.9241
0.548185
0.798646
0.563258
0.317222
0.482123
0.308092
0.134909
0.23796
0.107403
0.0141259
0.0660752
0.0135296
1.51509
0.901112
1.39429
0.811959
0.787281
0.506004
0.67653
0.461011
0.452564
0.246637
0.38932
0.247467
0.194606
0.0981561
0.194098
0.0980117
0.0680906
0.0111058
0.0617582
0.0131967
0.870226
1.2233
0.82578
1.2288
0.802885
1.25937
0.823017
0.5194
0.71621
0.504715
0.67943
0.459237
0.731376
0.434564
0.264103
0.420968
0.247405
0.389774
0.239772
0.395518
0.201187
0.0999863
0.178564
0.0960933
0.184522
0.0932491
0.158744
0.0844846
0.494984
0.658597
0.489441
0.719548
0.435285
0.816962
0.233102
0.39313
0.25767
0.393535
0.207166
0.189026
0.51188
0.644311
0.517292
0.820592
0.475205
0.863794
0.517307
0.28482
0.375088
0.289824
0.428622
0.196451
0.426565
0.232531
0.528611
0.735687
0.540201
0.92148
0.527231
1.02956
0.528067
0.288818
0.379888
0.29107
0.430021
0.262649
0.432706
0.234943
0.501712
4.04031
4.07187
0.506584
4.10702
4.08188
0.270806
4.05782
0.225993
0.442493
0.219546
4.0526
3.56536
0.107152
0.194783
0.0740036
0.181783
0.0950148
3.20044
1.63443
0.0186836
0.0527568
0.00870396
0.062103
0.00951945
1.5448
0.0402975
4.04722
3.25775
4.06318
3.48469
4.06332
3.67748
0.0695462
3.16714
1.70409
3.14808
1.60724
3.48488
1.28703
0.00558978
1.58217
1.51916
0.0479971
1.38883
0.023731
3.36768
4.03471
3.34855
4.05704
3.85716
4.02175
3.68226
1.68106
3.27806
1.62395
3.59155
1.44065
3.55349
1.26942
0.0166654
1.58672
0.0192742
1.46529
0.0269424
1.33338
0.0376112
3.44064
4.02358
3.48307
4.00584
3.80687
3.95468
3.77479
1.60436
3.35208
1.55015
3.52545
1.23543
3.42454
1.04589
0.0317577
1.50847
0.0964324
1.1108
1.15782
0.00623194
3.52941
4.01342
3.50419
3.94562
3.52418
3.96411
3.67194
1.65618
3.30008
1.55722
3.34609
0.7294
3.55394
1.10093
1.47245
0.0198936
1.09061
0.965062
3.42713
4.00677
3.56416
3.97634
3.62229
3.99643
3.81827
1.57556
3.31034
1.75007
3.57647
1.26754
3.52689
1.47638
0.0386887
1.56663
0.0747322
1.26996
1.46353
0.0246144
3.43829
3.9903
3.49147
3.99602
3.57164
3.98722
3.31033
1.61927
3.3976
3.52213
1.4078
3.22017
1.60212
0.140684
0.00395035
1.49337
0.044771
1.44683
0.0345429
4.00675
1.01847
0.577218
4.02971
4.01416
3.9012
3.99013
3.52148
0.490361
0.261395
3.97708
3.35852
3.97245
0.083256
0.195619
0.116566
3.22643
1.61224
0.215124
0.0904679
0.00617665
0.0713429
0.0155767
1.50612
0.057356
0.0702651
0.0088779
0.591318
0.801877
0.609631
3.88539
1.05262
0.576671
0.268969
0.445446
0.31869
0.253261
0.437695
0.315299
0.132294
0.197261
0.130645
0.21874
0.0987676
0.199167
0.11255
0.585665
0.694752
0.572891
0.997992
0.580559
0.883706
0.540553
0.33392
0.42878
0.334266
0.475629
0.287631
0.49575
0.269721
0.567317
0.753994
0.540808
0.913269
0.536423
0.868843
0.325859
0.463532
0.301367
0.492689
0.254248
0.232676
0.54684
0.799247
0.561498
0.840828
0.525049
0.814798
0.548867
0.300702
0.478584
0.30226
0.465651
0.243827
0.471379
0.271532
0.969118
1.37797
0.935735
2.47321
0.92199
0.549603
0.805682
0.556367
0.846646
0.555242
0.293865
0.470326
0.287606
0.482597
0.291804
0.0966809
0.213317
0.0995173
0.23598
0.107919
0.0190681
0.0487173
0.01966
0.0762738
0.010141
0.911573
0.840415
0.543584
0.492314
0.285354
0.246427
0.105344
0.0827019
0.00708936
1.2977
0.745777
0.662078
0.905961
0.70247
0.595575
0.476952
0.613371
0.419921
0.567096
0.461871
0.367149
0.273098
0.392255
0.252662
0.361664
0.279642
0.189845
0.117241
0.229963
0.109681
0.195663
0.126476
0.0551634
0.0218068
0.0908911
0.00567824
0.0585669
0.0232959
0.458702
0.669755
0.445775
0.549618
0.459163
0.543765
0.457065
0.259661
0.383811
0.225818
0.351225
0.280609
0.349956
0.280906
0.444554
0.552212
0.463923
0.573199
0.472769
0.230045
0.352752
0.282779
0.356269
0.28101
0.958904
0.506009
0.674262
0.474294
0.844849
0.527964
0.448172
0.212772
0.389861
0.251986
0.433555
0.246914
1.15203
3.15436
1.24107
2.23093
1.18897
3.68525
3.9803
0.51316
1.0596
0.510858
0.948729
0.54143
4.0291
4.05843
0.233475
0.447561
0.231232
0.449005
0.235043
4.04289
0.0825542
0.179062
0.0897973
0.168665
0.0795414
0.0698108
0.0160253
0.0580007
0.012667
0.0387066
0.015971
0.0495321
0.00599217
0.503704
4.11862
4.08669
4.06355
4.06462
4.1324
4.10155
0.217681
4.05502
3.4922
4.04005
3.52277
4.06378
3.43939
0.0874193
3.22565
1.64781
3.41989
0.064845
3.3228
1.45807
0.00749916
1.54752
0.0190906
0.0507149
0.00411801
1.45625
0.0177863
3.78329
4.06182
3.64426
4.06665
3.40221
4.04403
3.58873
1.61874
3.49984
1.41918
3.32124
1.56078
3.54026
1.07337
0.0230852
1.46333
1.52132
0.0179782
1.17958
0.163754
3.75512
4.0091
3.63483
4.0239
3.74154
3.88599
3.1616
1.31588
3.56998
1.25324
3.56489
0.980275
3.06195
0.772569
0.0223626
1.42472
0.00753417
1.1
1.05285
3.87318
3.8744
3.63803
3.78748
2.85135
3.24808
2.49733
1.06754
3.37412
1.06408
2.83806
0.870769
2.21376
0.828744
0.00379989
1.04674
0.00162747
0.863122
0.609377
0.103868
4.27472
4.38459
4.27034
4.82052
4.25322
4.46103
4.29249
3.98375
4.15759
4.00889
4.14648
3.31346
4.17067
3.66553
3.42827
3.90823
3.66033
3.23555
2.47212
3.52074
2.59123
1.01911
3.52824
0.798145
2.19902
0.832084
2.4189
0.895068
1.12089
0.612553
0.10444
0.778632
0.0599439
3.60109
3.98627
3.682
3.67661
2.66711
3.91971
3.42286
1.13875
3.59324
1.50395
2.52907
0.892322
3.39473
1.08376
1.74295
0.0371277
0.805687
0.0527019
1.21044
3.84551
3.98757
3.34369
3.95497
3.72931
3.99333
3.52183
1.51389
3.23561
1.70341
3.46188
0.958835
3.36133
1.34895
0.0747082
1.47047
0.0593681
1.15631
1.34589
0.0865651
4.02956
3.96631
3.99606
4.07893
4.04305
4.05003
4.01717
3.42554
3.97523
3.99601
3.48753
3.98081
3.31825
1.6631
0.0845934
3.31352
1.49385
2.98743
1.61747
0.0852876
0.0668541
0.00621802
1.36103
0.100144
1.52014
0.00375925
3.81967
2.6653
1.41293
3.57129
3.95263
2.85542
1.43902
3.99395
1.14214
0.600695
4.00458
4.0088
1.15276
0.586749
0.251071
0.48148
0.28232
3.97934
3.20722
0.495811
0.286361
0.0881427
0.206793
0.0919258
3.10152
1.62112
0.216099
0.0816996
0.00880275
0.0433924
0.0176458
0.00475183
0.0387287
0.0159511
0.573995
0.940711
1.12592
0.609733
0.881048
0.58052
0.268764
0.253444
0.497275
0.295183
0.48223
0.281913
0.845415
0.519514
0.821674
0.560015
0.698245
0.557636
0.471473
0.240736
0.46773
0.267916
0.424183
0.30755
0.531743
0.778848
0.546058
0.650381
0.543715
0.648425
0.543473
0.267336
0.46266
0.278689
0.413739
0.32414
0.415609
0.327719
0.895862
2.35213
0.92563
1.00688
0.828918
1.54231
0.864739
0.576784
0.805135
0.551162
0.680151
0.55312
0.750019
0.524739
0.322157
0.479232
0.298283
0.430431
0.328066
0.461403
0.306384
0.12169
0.242472
0.11449
0.222681
0.139551
0.255108
0.132338
0.0224293
0.0810967
0.0106621
0.0633345
0.0249205
0.0950126
0.0126676
0.906844
2.22785
0.844269
0.539483
0.772172
0.509108
0.287923
0.4717
0.296567
0.108816
0.266465
0.127184
0.00683314
0.104894
0.00748214