/*--------------------------------*- C++ -*----------------------------------*\
| =========                 |                                                 |
| \\      /  F ield         | OpenFOAM: The Open Source CFD Toolbox           |
|  \\    /   O peration     | Version:  4.0                                   |
|   \\  /    A nd           | Web:      www.OpenFOAM.org                      |
|    \\/     M anipulation  |                                                 |
\*---------------------------------------------------------------------------*/
FoamFile
{
    version     2.0;
    format      ascii;
    class       volScalarField;
    location    "53";
    object      p;
}
// * * * * * * * * * * * * * * * * * * * * * * * * * * * * * * * * * * * * * //

dimensions      [0 2 -2 0 0 0 0];

internalField   nonuniform List<scalar> 
146404
(
-6.70683
-3.08066
-10.385
-6.01516
-11.7072
-6.77964
-3.49227
-2.49969
-4.88385
-18.6808
-1.45178
-6.93015
-3.35629
-9.83749
-5.32981
-2.98329
-6.43814
-5.10647
-3.41708
-8.994
-7.07525
-10.2584
-7.09426
-3.67677
-5.0734
-7.10529
-10.8571
-8.66092
-3.80659
-1.31282
-7.86932
-17.7185
-10.9057
-3.24329
-0.576594
-6.65692
-14.9494
-9.12827
-3.38001
4.62015
0.125531
-19.0438
-3.31029
3.50985
-4.95009
-14.2955
-9.08217
-3.55923
2.01653
-3.31766
-9.59725
-8.15891
-4.02923
0.704154
-2.30321
-7.9008
-7.09737
-3.43599
-1.6071
-1.67937
-6.95545
-5.64699
-3.21818
-1.69583
-6.52632
-2.35388
-1.43388
-7.6358
-16.2812
-9.87797
-4.55819
2.77389
-7.53173
-24.0284
-15.0048
-4.79194
4.81407
-9.62922
-32.4288
-19.9899
-5.81742
7.23551
-7.10944
-25.484
-15.1024
-6.97246
14.2392
-5.21238
-31.0142
-7.53854
12.3831
-7.39301
-25.9007
-19.8721
-7.77871
15.6186
-4.11926
-27.3901
-20.8273
-8.19671
9.868
-0.999377
-16.0287
-14.0453
-5.51984
6.72728
-2.70998
-12.9901
-8.14437
-4.09308
5.9855
-1.07324
-11.4165
-2.23148
1.13715
-8.47917
-4.40689
-2.66094
-5.87007
-8.46522
-12.5332
-7.61831
-2.74677
0.769216
-7.15609
-19.7995
-9.43518
-3.66314
8.62683
-1.85752
-27.8347
-8.58701
-6.05379
13.9112
-10.7653
-31.9816
-21.4086
-7.02871
22.0068
-28.7667
-50.1231
-37.3342
-8.58889
35.219
-33.5241
-62.0443
-31.6816
-10.7074
46.4331
2.9528
-65.303
-12.486
37.7246
-23.7231
-67.1556
-40.9769
-13.136
29.2975
-23.7889
-57.9628
-42.6383
-13.4016
26.3906
-1.30886
-33.7368
-29.449
-10.7079
18.9686
5.80518
-27.0176
-13.842
-7.372
9.62773
0.258535
-14.4995
-9.98778
-4.74927
3.48715
0.147165
-6.8464
-6.52219
-3.54438
0.959924
-3.7255
-4.5699
-3.22764
-7.58003
-8.60142
-11.2379
-8.0177
-3.47832
-1.31705
-9.04363
-20.9296
-11.0348
-3.40419
4.93456
-10.0301
-27.7364
-17.7881
-6.35595
27.3639
-7.16427
-50.8953
-21.2209
-9.22192
58.2952
-22.554
-95.7686
-58.9625
-8.54774
100.657
-82.5181
-155.958
-85.804
-13.6545
110.965
-106.788
-189.321
-83.8272
-21.0815
140.691
-126.427
-72.2529
-32.7028
117.571
-109.2
-184.16
-98.0638
-33.2695
98.7481
-54.9937
-148.129
-109.398
-31.6136
62.8809
0.167338
-97.775
-113.504
-19.3407
36.243
8.78334
-53.129
-40.0728
-12.2377
16.1716
0.581074
-21.4137
-18.0073
-6.68499
9.2493
-0.0499859
-11.2615
-10.1405
-4.08537
2.74941
1.48176
-5.6466
-6.65821
-3.39947
-10.3606
-8.5559
-11.6326
-6.85345
-3.29517
-2.27536
-10.6085
-15.7527
-11.44
-3.97965
2.31213
-9.38485
-34.0994
-15.7013
-4.94762
16.6374
-25.2448
-85.6432
-26.2384
-6.20061
62.5737
-102.942
-156.122
-61.2846
-11.5457
145.347
-87.7861
-168.675
-98.7951
-15.1273
311.062
435.99
-89.1446
-15.6842
381.743
434.684
436.059
411.317
385.161
431.745
435.117
430.619
310.166
372.359
430.812
434.42
422.769
305.945
429.035
-103.937
-28.6661
178.783
-160.084
-37.4009
68.3627
-39.0565
-123.258
-89.5563
-18.9485
23.3729
-1.19997
-43.2564
-38.0207
-11.0018
13.915
4.77074
-20.6703
-21.546
-6.85927
7.71015
0.179709
-9.29684
-8.66148
-4.61635
1.05131
0.641846
-6.1269
-4.86636
-3.0097
-2.28013
-7.32333
-18.2088
-5.21088
-2.37241
1.15703
-9.83493
-21.7252
-11.8061
-3.68654
9.77811
-11.2124
-38.5027
-20.2245
-7.38478
41.2082
-75.3135
-116.92
-39.2344
-7.80659
135.371
-87.5391
-186.775
-79.1957
-10.9856
375.599
438.049
438.704
-13.0721
413.507
431.144
434.821
407.407
306.025
414.661
427.682
432.287
438.805
334.589
413.294
426.148
432.367
425.26
285.125
409.402
425.665
430.521
416.426
334.046
390.74
426.069
431.39
399.855
297.95
346.343
431.767
433.504
424.625
-36.2394
167.136
-70.3564
-129.183
-108.11
-45.1314
46.2218
-23.6154
-84.631
-67.6245
-15.8924
23.3183
3.50882
-30.4626
-24.4668
-7.10903
12.4897
3.07292
-16.8738
-12.0287
-3.80598
7.13316
1.71535
-13.1079
-3.51357
-2.55936
-1.84347
-7.33538
-15.8074
-7.98906
-3.6341
5.83406
-2.5007
-24.6963
-9.59402
-5.21967
26.6567
-26.1691
-9.90437
83.341
-76.6677
-149.604
-49.9974
-15.1847
304.727
-176.21
-72.277
-11.9011
414.627
432.202
436.971
392.95
279.114
418.043
428.677
436.107
379.749
260.406
416.113
425.067
434.917
432.025
328.262
414.263
422.261
430.769
433.179
214.558
413.461
423.179
432.534
455.968
313.823
408.867
423.96
431.769
349.842
302.75
386.142
426.76
428.241
429.656
317.7
300.028
428.168
433.024
-113.741
-40.6226
87.4914
-51.2793
-161.866
-100.996
-19.7571
35.7704
69.9373
-89.5588
-10.2329
16.1975
8.92746
-22.7925
-13.3335
-4.72459
7.39351
1.3412
-10.0941
-6.56765
-3.55108
2.56081
-6.18571
-4.1237
-2.49838
-5.8942
-8.8875
-6.51779
-3.59015
-0.107927
-7.11318
-17.5289
-10.5267
-3.46675
6.87864
-8.67807
-33.0039
-18.4862
-6.19979
28.9337
-27.7559
-59.9392
-32.5764
-9.59998
95.5229
-83.3934
-187.979
-69.4288
-21.5902
380.704
437.661
438.934
440.154
-20.1789
417.949
431.134
435.972
389.462
267.389
418.012
427.033
434.784
461.68
177.067
416.003
422.507
426.524
302.463
243.391
410.29
418.614
414.061
341.61
255.738
411.796
419.204
421.335
295.458
235.742
412.098
422.597
430.986
442.736
167.472
399.014
423.518
428.61
413.573
258.253
347.344
430.915
434.259
386.768
319.436
125.686
-63.4713
-139.161
-126.504
-42.5722
28.1017
-0.110886
-52.7681
-33.5109
-11.2745
15.4405
1.19969
-16.9248
-15.8502
-6.09387
8.51394
3.27277
-8.37478
-9.10418
-4.28427
0.887686
2.5914
-3.39205
-4.56833
-3.0057
-12.5512
-5.76586
-8.66319
-6.42587
-3.58036
0.0673747
-6.97925
-17.2602
-10.4708
-3.54073
7.14869
-8.73084
-33.1532
-18.7174
-6.32883
28.3029
-33.2446
-74.883
-42.3417
-10.015
116.703
-64.0846
-160.845
-82.8988
-22.6156
386.384
438.588
438.465
421.541
418.539
431.978
436.865
442.704
347.194
418.831
427.43
443.028
448.495
201.806
413.74
422.883
418.501
339.413
275.055
409.388
418.959
405.084
339.883
264.377
408.185
418.7
412.902
338.996
259.708
413.503
423.282
429.43
456.972
212.674
402.622
424.371
429.725
442.977
258.647
353.972
430.501
433.07
416.572
323.225
139.07
-55.8456
-140.729
-117.863
-36.6538
25.3014
-6.64214
-49.1301
-39.6697
-11.9049
16.5739
0.996519
-19.3652
-17.1183
-6.5207
8.93638
3.28455
-8.70002
-9.95577
-4.65044
1.02741
2.62433
-3.60988
-4.85681
-3.50693
-5.6587
-8.47915
-6.06361
-3.61576
-1.87859
-5.78327
-13.2997
-9.12683
-3.48058
6.35192
-5.17614
-24.4638
-15.9895
-5.94935
32.3226
-13.0742
-52.1997
-34.0987
-10.9085
118.21
-86.8897
-176.076
-86.8571
-16.0904
374.656
437.508
439.217
414.521
-15.4642
416.462
432.56
436.435
427.817
278.055
419.949
429.572
439.92
442.127
207.387
417.974
424.84
429.409
330.638
237.876
414.429
421.349
418.73
338.335
269.958
415.955
422.239
426.264
333.775
260.956
413.114
426.078
434.517
441.47
143.784
399.667
427.706
430.984
353.799
265.582
338.37
434.901
434.461
424.033
323.092
107.899
-52.9363
-130.277
-138.666
-16.4239
35.2299
1.87616
-54.082
-48.2018
-9.8643
16.2256
4.38887
-18.1436
-17.8766
-4.87156
6.77877
1.76542
-8.37866
-8.27494
-4.29586
0.25045
2.2115
-3.67867
-5.05706
-2.8866
0.0253384
-5.8388
-14.913
-6.22265
-2.92569
7.88812
-3.98576
-24.0438
-4.97403
-4.95159
25.9426
-13.301
-8.15335
73.3176
-46.9007
-150.18
-74.6924
-13.3876
286.993
-156.162
-103.738
-15.375
397.906
434.305
437.349
440.052
296.008
416.853
431.188
436.742
433.384
226.836
419.074
429.569
434.889
447.032
337.042
418.817
432.328
441.851
446.764
230.392
415.315
427.78
434.395
432.57
259.301
408.777
427.964
432.285
374.766
261.723
385.58
432.568
431.908
374.624
302.365
293.049
432.893
435.141
-102.085
-30.6577
64.8991
-53.2632
-178.215
-89.8933
-12.3193
25.1427
4.95995
-58.6169
-6.68269
12.0596
10.7352
-26.247
-16.7218
-4.19232
5.40666
4.5126
-12.5484
-8.87363
-3.30262
1.45052
-7.1044
-5.11137
-2.68547
-3.14643
-7.47166
-16.9764
-6.51181
-2.78887
1.25664
-8.24109
-17.5706
-11.2985
-4.57398
8.81859
-9.48337
-34.5471
-23.4903
-6.47041
34.6808
-37.1317
-93.9235
-49.658
-9.09188
126.414
-66.0517
-139.601
-102.033
-20.3376
332.912
439.971
440.561
-19.8154
394.122
435.12
436.938
431.492
268.034
406.502
431.239
435.468
448.802
254.951
408.429
430.766
439.916
360.634
175.81
403.373
430.365
433.915
443.395
264.364
385.32
433.671
432.769
404.976
293.756
337.974
435.733
435.764
343.955
-25.5732
93.8946
-106.322
-162.744
-105.036
-11.9642
10.6871
-12.0338
-45.8485
-27.8967
-8.81579
4.95378
-6.85931
-32.5454
-22.4705
-6.16342
3.19299
-8.24961
-18.0279
-10.7647
-4.52575
0.734789
-4.88902
-16.882
-5.91561
-2.77836
-11.1171
-6.87364
-10.1064
-6.64184
-3.60063
-3.2439
-7.33206
-11.7463
-8.94686
-4.00751
2.63378
-6.57808
-20.8508
-13.4304
-4.13351
16.7742
-9.2325
-34.9524
-29.1651
-7.99496
51.42
-38.8983
-106.121
-59.7018
-10.6559
123.228
-57.2902
-162.937
-102.181
-25.0144
283.411
437.063
-131.386
-87.0244
-27.1372
354.611
436.424
439.116
395.16
362.017
437.033
439.661
404.703
323.845
351.87
436.582
437.706
424.301
282.668
435.176
-87.193
-22.6039
95.5628
-103.395
-12.2849
33.75
-36.3668
-81.5722
-47.1205
-8.58912
4.69606
-7.48712
-25.4711
-15.4556
-5.00459
-0.584189
-8.31834
-16.1524
-10.4978
-3.95735
-2.38133
-6.73686
-12.2296
-8.88441
-3.96765
-5.97897
-5.86442
-10.1238
-6.77491
-3.35739
-7.18055
-6.45449
-9.19497
-6.95427
-3.11711
-1.70078
-6.01121
-13.7243
-8.75636
-3.32213
5.70303
-6.35041
-21.8407
-15.1697
-4.83112
22.7166
-0.051216
-44.1921
-21.9752
-7.0896
37.7433
-26.9733
-74.0256
-36.8899
-9.90633
52.8633
-80.6504
-123.999
-62.0416
-12.393
73.4873
-138.799
-133.269
-61.1677
-19.2805
81.0569
-134.776
-72.9946
-17.9595
76.0777
-116.074
-158.545
-74.2598
-9.02035
48.045
-81.4871
-129.769
-62.0996
-10.1562
29.8063
-18.3562
-80.3566
-46.7138
-7.97338
14.2772
-7.02632
-50.0294
-21.4289
-5.25635
2.907
-6.77508
-21.0874
-14.6213
-4.10684
-2.28524
-7.12058
-13.5199
-9.91896
-4.36261
-5.66387
-6.38522
-10.1754
-8.21417
-4.09495
-4.57727
-6.7008
-11.4871
-7.06792
-3.10277
1.93397
-4.92546
-18.369
-9.1954
-3.54216
5.72231
-4.91861
-24.8195
-8.38758
-4.32636
5.6003
-6.974
-24.4622
-15.4131
-5.27283
7.65177
-10.796
-32.647
-19.1449
-6.20944
21.7837
-15.4073
-44.2411
-29.1132
-6.92161
27.7592
-24.4942
-38.7585
-6.80285
9.08224
-19.4212
-49.9418
-19.727
-6.24259
4.49179
-8.02414
-28.6057
-17.5229
-5.74177
6.35644
-7.91007
-26.3853
-19.1367
-4.93262
3.47934
-3.4165
-27.0673
-13.1675
-3.47893
-0.747169
-5.26253
-19.0137
-8.75275
-3.24173
-5.36116
-6.68851
-11.4613
-7.77961
-3.83698
-6.24196
-8.80447
-6.61061
-3.89854
-2.23268
-0.415353
-2.16954
-2.27931
-6.32608
-12.6009
-7.6266
-3.5365
0.414707
-5.64904
-14.3362
-10.1681
-4.35404
0.388578
-6.73517
-17.4234
-10.1435
-3.27829
4.05213
-6.0379
-20.2453
-13.4988
-3.49676
7.87004
-8.36924
-15.7984
-3.52248
0.135901
-10.8109
-22.6865
-9.54152
-3.49849
0.958149
-7.51218
-15.5344
-9.63329
-3.54381
-2.46169
-7.8633
-14.9859
-10.4084
-4.35001
-4.05365
-7.8454
-13.9773
-8.32865
-3.59086
-3.02094
-0.113937
-20.9572
-10.4366
-2.46711
-12.7468
-5.05526
-2.81103
-9.70655
-5.71564
-9.1289
-5.67805
-3.02267
-5.96366
-5.80306
-8.76877
-7.15778
-3.59075
-3.98935
-5.65853
-11.108
-7.98097
-3.55058
-2.29332
-6.20322
-13.1534
-7.84741
-3.42053
0.904925
-8.00217
-9.38631
-3.57199
-3.24264
-9.21164
-14.2104
-8.22617
-3.60435
-6.21081
-8.32057
-11.438
-8.49504
-3.75219
-7.59003
-7.66677
-10.7081
-8.35248
-4.08078
-9.72429
-7.25656
-10.4061
-6.92707
-3.61229
-10.8762
-5.37781
-10.0499
-6.36427
-3.06384
-8.18191
-8.13747
-3.96261
-2.22515
-11.4202
-7.56891
-12.5812
-7.0165
-3.36311
-6.81391
-3.83603
-10.061
-10.6083
-8.02693
-6.91705
-4.01589
-3.42636
-0.182181
-7.56044
0.573465
-10.6636
-10.3102
-18.4376
-11.0874
-8.15013
-18.8827
-8.7614
-6.77067
-3.96122
-8.60393
-2.18839
-3.36309
-0.198208
-1.90309
-0.247024
-7.16832
10.9489
-1.77222
-4.95031
-2.89285
-9.69891
-10.1196
-6.59488
-19.9186
-2.0311
-5.03182
-3.17451
-1.81728
-0.21632
-2.87359
-0.226818
-2.48938
-3.35816
-8.99436
-9.48561
-6.53299
-5.05969
-3.27509
-2.86158
-0.265842
-6.68327
-6.91946
-9.85452
-10.1773
-7.7863
-6.61781
-4.01566
-3.41939
-0.0266689
-12.8995
-6.78958
-8.38801
-6.65173
-6.96323
-9.65183
-6.94144
-8.65294
-9.95896
-7.77852
-9.59779
-8.50824
-6.69803
-4.20766
-7.37126
-4.87733
-3.58642
-0.14782
-3.82015
-0.667326
-7.64615
-6.45802
-5.65158
-6.01426
-6.79482
-8.66579
-6.7211
-9.45452
-9.60127
-8.86643
-10.8445
-9.75616
-7.76706
-5.17253
-8.6768
-5.65132
-3.9513
-0.595158
-4.25914
-0.761585
-10.8364
-5.83881
-5.36918
-5.57604
-4.18997
-4.74772
-6.13903
-9.87692
-6.67822
-8.95243
-6.59554
-10.157
-8.61259
-10.7139
-8.71802
-11.5751
-10.5951
-13.0951
-11.8966
-5.12193
-6.69439
-4.35872
-8.39934
-6.18439
-9.09298
-6.46243
-3.42302
-0.474909
-3.72111
-1.39131
-3.74726
-1.4351
-5.51739
-3.49244
0.696987
-2.8384
-3.52012
0.0427004
1.24881
-10.949
-7.14395
-18.7951
-6.89155
-11.0951
-11.8871
-21.9184
-8.97132
-19.1129
-10.1358
-12.9316
-10.8614
-22.8077
-12.5777
-4.44701
-4.51831
-2.95551
-7.4705
-5.93748
-4.7916
-3.04348
-0.537136
-2.13206
-0.52118
-3.76072
-1.5982
-2.66349
-1.24249
6.11655
-6.54904
-1.69402
2.32052
11.1022
0.716623
0.0177808
-3.17038
-9.41523
-0.708367
-2.88141
-10.7974
-10.1016
-7.21266
-14.719
-11.6332
-10.1091
-2.13059
-4.93721
-3.51411
-18.389
-4.12582
-7.61395
-4.75813
-0.388613
-2.81202
-0.442651
-3.29155
-1.35173
-3.4968
-1.57882
-2.58707
-2.65861
0.0073235
-1.1904
-0.563879
-1.61684
-8.95995
-2.83635
-6.24121
-4.27748
-8.87512
-4.19821
-6.97829
-7.51474
-6.78832
-6.03642
-11.5972
-10.4622
-9.10069
-8.288
-3.66111
-5.23349
-3.59964
-6.78076
-4.75164
-7.01981
-5.28444
-0.528678
-3.14224
-0.231063
-3.34534
-1.4657
-3.49108
-1.48039
-0.325785
-1.31595
-1.30284
-1.35946
-5.80707
-3.10338
-5.19875
-2.25996
-5.32536
-5.78564
-7.65751
-7.89676
-6.72796
-7.20671
-3.64253
-6.52123
-5.02271
-6.55963
-4.68532
-0.201303
-3.17564
-1.30643
-3.68548
-0.670382
-1.70365
-1.39474
-3.54417
-1.27244
-2.1855
-5.10716
-1.5643
-4.82487
-6.47919
-6.81526
-6.27088
-6.15987
-6.27374
-4.43735
-5.24809
-3.91908
-3.55029
-0.639583
-3.172
-0.573252
-4.21059
-1.20873
-1.48068
-5.71477
-6.42419
-6.08551
-5.44168
-3.62464
-3.15944
-0.34492
-6.10264
14.1915
-3.46482
-2.69337
-2.29358
-0.434783
-11.1414
-6.60808
-4.55186
-0.830572
-4.69404
-4.66961
-6.8687
-10.3605
-10.7829
-7.9848
-12.7563
-10.7673
-8.57406
-11.865
-13.9969
-11.6803
-6.54443
-4.20498
-0.803385
-3.49477
-6.86437
-4.41563
-3.28353
-0.429626
-2.64868
-0.541286
-2.95879
-1.19959
-6.5382
-6.2169
-5.95431
-4.45706
-4.56502
-3.45574
-4.49253
-9.68261
-7.18745
-9.02873
-7.57619
-11.507
-7.33236
-10.9852
-8.73636
-10.6209
-10.2625
-13.2329
-12.001
-13.3705
-12.361
-4.73005
-7.77057
-5.97503
-8.33091
-5.85005
-9.42427
-6.69832
-0.57562
-3.41112
-1.35129
-3.78612
-1.62545
-3.94941
-1.58016
-12.3495
-11.7598
-22.6759
-6.87686
-15.4902
-5.03474
-31.4494
-13.0787
-23.8278
-13.4763
-19.0766
-16.7126
-32.1111
-19.9783
-2.75794
-12.0641
-5.20258
-1.70416
-16.9336
-15.797
-12.9887
-11.6521
-22.5226
-19.0776
-17.3721
0.193056
-1.23419
-0.802118
4.70812
2.23783
3.38118
2.24931
-0.68538
2.87902
2.13162
3.9751
4.8681
-5.74903
-2.56996
-8.02992
0.391976
-14.4492
-6.81642
-10.7025
-9.74022
-14.6795
-8.59179
-3.96401
-6.84558
-4.64743
-4.18008
-4.11457
-0.592462
-3.23188
-1.44789
-2.92701
-0.600768
3.86525
7.77926
2.74658
-16.2778
1.28245
-9.42051
-16.6377
-9.18143
-10.3765
-6.28179
-7.19332
-2.19245
-4.29206
-2.24764
-1.96376
-0.506206
-2.10699
-0.264879
-9.29063
-7.65438
-8.201
-10.344
-11.0111
-8.55108
-6.97926
-4.11799
-3.1528
-0.553251
-4.38449
0.628512
-7.65559
-7.02914
-3.76905
-4.38403
22.591
-8.46561
-11.0326
-7.80871
-16.1992
-35.2579
-12.0721
-10.2144
-16.6305
-11.0928
0.739431
-3.24232
-6.43924
-4.48108
-6.24684
-4.45188
-2.47985
-0.554939
-2.79111
-1.14139
-2.91305
-1.24059
-6.74785
-15.9961
-6.87476
-19.2899
-3.4732
-28.2198
-16.612
-12.4633
-19.4306
-11.0683
-26.7023
-17.3571
-20.7769
-5.1949
-33.8951
-12.75
-32.5404
-8.36032
-62.6465
-22.915
-34.3522
-22.5534
-38.8749
-34.3455
-57.3125
-43.1209
-1.89488
-20.2385
0.972654
-2.00112
-38.0217
-25.3283
-22.7956
-21.5542
-50.2594
-42.2099
-37.1255
-11.4749
1.49404
-15.6915
4.01872
-20.0259
6.11828
-17.3696
-11.9744
-15.9116
-9.07005
-23.1479
-19.82
-18.5566
-14.1156
9.94093
-2.0122
2.66093
7.44712
7.72052
4.37733
3.88173
1.1448
-8.3095
3.38384
-12.5543
0.0573244
-5.87712
-9.77389
-10.0336
-7.10123
-15.7029
-12.8358
-9.57423
-9.1042
-2.84941
-4.14434
-3.00363
-8.48806
-4.72428
-6.21126
-4.70584
-1.04509
-2.51398
-0.574669
-3.38678
-1.44184
-3.45389
-1.64334
2.3345
2.65389
2.13062
1.18135
-7.49672
0.660817
-5.09063
0.826294
-3.13291
-6.06433
-6.98875
-7.11539
-3.99473
-5.23597
-3.06735
-6.27368
-4.12643
-4.58567
-3.83107
-0.324352
-3.45406
-0.749819
-3.21701
-0.264901
-11.5832
-8.45879
-8.2755
-9.38527
-9.84221
-8.21756
-6.98795
-4.56883
-3.53096
-0.542139
-8.29992
-7.588
-9.77763
-8.24873
-6.71326
-7.1333
-8.46818
-9.69162
-8.44038
-9.73727
-8.67518
-10.7304
-10.8508
-9.68648
-10.133
-8.7436
-11.9897
-10.8252
-7.14417
-5.28247
-7.43034
-4.76333
-8.09188
-5.814
-3.13364
-1.24113
-3.53107
-0.570142
-3.30981
-1.28215
-19.7561
-6.27948
-32.3723
-8.95385
-19.3233
-5.10156
-34.2193
-14.2122
-28.7493
-22.9032
-23.1175
-20.1938
-36.0601
-26.6479
-29.3614
-9.66911
-26.6035
-1.45645
-43.223
-7.31681
-53.4416
-18.1194
-28.7803
-28.3403
-43.3146
-28.1268
-62.9476
-48.5
-55.8352
-7.09316
-73.9809
-120.103
-164.966
-101.526
-176.572
-51.8163
-66.7507
-52.794
-132.682
-87.6186
-177.233
-75.3812
-8.06422
-51.5992
-69.1949
-87.3629
-170.985
-57.8115
-56.4243
-49.3899
-74.6762
-167.964
-92.5895
-21.796
4.44336
-23.6793
5.05354
-63.2036
46.5756
-36.9477
-27.8428
-27.74
-84.3377
-100.97
-64.6439
-24.891
4.71879
-16.6433
17.4066
-49.1863
5.14549
-16.8274
-21.6202
-19.776
-16.7912
-48.1688
-50.1801
-21.4207
-24.5587
3.29483
-3.81696
1.49845
5.91968
4.19209
3.08463
2.74215
-3.40338
0.726518
-2.54026
1.03062
-3.9383
1.20423
-1.89264
-7.79045
-4.30159
-5.55468
-8.54742
-9.46277
-6.05692
-7.1956
-5.12884
-4.79026
-4.04264
-8.932
-6.51369
-7.12411
-5.93121
-1.63745
-3.20439
-0.606842
-4.38551
-1.96656
-3.76998
-1.67167
1.18905
1.53363
1.79842
-2.80392
1.18581
-2.71702
-5.11832
-4.92894
-6.12495
-3.81621
-6.16909
-4.39254
-0.334466
-3.49499
-0.70783
-8.76872
-10.9492
-11.0954
-7.62708
-7.19301
-3.89859
-3.51909
0.0964685
-10.245
-8.33211
-13.9118
-8.33525
-6.91212
-7.78538
-8.44064
-9.69523
-8.50078
-10.7812
-8.9397
-10.4629
-10.156
-8.77939
-10.9284
-7.75828
-11.45
-10.3164
-7.43985
-4.79674
-7.03262
-3.88799
-7.61821
-5.3447
-3.60035
-0.533368
-3.38609
-0.0883641
-3.06103
-1.1437
-49.6107
-9.72532
-71.6763
-40.1628
-92.4182
-82.3379
-169.238
-35.9127
-76.2443
-72.7465
-98.1448
-68.0444
-170.851
-124.627
-87.0876
-84.1322
-121.592
-6.42708
-99.1527
-127.51
-91.9654
-148.103
-144.07
-139.596
-139.261
-121.85
-132.816
-87.9947
-183.617
-131.677
434.582
437.175
-144.365
-188.47
-114.916
-135.856
-113.206
436.553
-36.8798
-83.5175
-40.0805
-85.3134
-28.0862
-26.5904
-3.60392
-16.8923
-5.02135
-18.9532
-3.69385
-16.6131
-1.72449
-101.23
138.726
-180.726
334.41
430.437
346.049
425.932
-188.883
-162.521
-180.115
436.199
437.137
433.541
436.025
-102.761
-177.705
-71.349
436.423
388.221
435.639
366.21
-46.1552
-71.247
-48.421
418.894
-25.3502
442.637
-6.62542
-28.9956
-6.5739
-19.8438
-2.30705
-1.48991
-136.942
122.808
-134.17
346.256
426.321
339.496
424.869
-125.012
-179.378
433.321
435.134
432.781
435.146
-71.2763
-181.926
-103.5
434.986
402.286
434.699
360.16
-48.1413
-83.0623
-56.2082
428.509
405.691
-41.7128
-9.97139
-30.4865
-9.38164
-0.434264
-33.147
-3.52876
-176.778
-56.3836
-145.669
432.547
435.267
430.967
-121.016
-163.858
-145.288
434.843
385.762
-119.161
-56.778
-102.494
-63.4705
416.886
-42.2925
-107.492
-50.9431
-9.15612
-35.2555
-7.65335
-34.5397
-4.31321
-29.0098
-2.4876
-96.9159
-49.8931
-83.8366
-116.145
-70.8271
-89.5253
-153.899
-131.551
-148.763
-122.144
-124.1
-98.7887
-123.716
40.7002
51.442
39.5009
107.455
23.4253
73.7584
29.1439
-71.05
21.3115
-66.0635
-14.8981
-88.2512
-134.52
-60.6957
-73.4044
-109.273
-161.387
-57.03
-67.6842
-42.5197
-133.739
-76.4541
-142.323
-64.5214
-40.075
2.81668
-19.0165
-16.0923
-52.1407
-2.98196
-33.1434
-58.1524
-29.5756
-36.8933
-88.909
-109.27
-48.7997
-60.2757
2.132
4.88131
3.38267
1.61917
1.95756
-1.57395
1.15089
-2.86701
0.895118
-3.51501
-6.66332
-7.12733
-7.89747
-5.20428
-5.97622
-5.20688
-7.33524
-5.64306
-5.19543
-3.85604
-1.48241
-3.6166
-1.55442
-3.04575
-0.606822
0.383417
1.58827
1.03396
-4.07482
-5.01476
-5.49052
-4.46321
-3.51926
-3.08933
-0.32459
-14.5298
-8.93515
-6.76722
-4.73002
-9.07239
-11.3646
-9.37708
-16.2255
-11.4567
-7.48205
-16.0977
-8.82588
-6.76529
-3.5019
-4.87228
-3.3032
-4.18604
-0.0301073
-2.58016
-0.467426
-7.97686
-5.86219
-6.86649
-5.43216
-6.00422
-3.538
-5.61112
-11.5011
-9.51378
-12.0927
-10.168
-14.9748
-10.3015
-14.6361
-8.86706
-13.3951
-11.9088
-14.8093
-11.4355
-15.7624
-13.3839
-4.18717
-8.51507
-5.96106
-5.70612
-4.27922
-7.98404
-5.42086
-0.46287
-3.445
-1.34224
-2.73159
-1.10909
-3.39561
-1.39683
-166.383
-107.319
-166.82
-75.886
-204.017
439.127
-107.826
-176.464
-124.074
-188.786
-122.685
-98.051
-164.807
-135.335
438.915
439.471
432.81
437.059
-124.433
-143.259
-109.321
439.323
-94.5392
435.328
376.365
-31.5017
-89.9103
-30.4996
-74.4528
-22.5508
425.13
320.477
-3.83478
-19.1647
-1.63095
-13.1386
-1.34075
318.257
434.21
437.234
433.437
436.015
430.711
434.138
-106.726
436.367
461.243
434.031
406.748
433.251
415.976
-26.2646
425.581
407.956
317.708
419.573
349.608
-1.01597
-14.1702
-0.160208
320.071
18.0601
278.935
8.09283
436.598
432.251
434.157
428.004
432.837
427.095
431.407
402.762
435.584
344.108
432.933
413.427
432.05
442.659
450.759
354.352
440.218
314.302
444.812
248.283
-0.338095
332.252
0.0417556
247.193
3.23281
304.308
0.149229
433.458
431.875
434.729
426.349
430.692
425.766
430.318
404.723
433.981
391.865
431.964
434.818
430.071
475.425
325.315
411.82
326.282
425.56
298.194
371.974
294.421
0.917832
-1.00993
298.375
297.688
6.55299
434.867
430.844
434.83
426.645
431.022
428.811
432.217
374.044
434.175
-116.918
430.612
415.689
430.119
377.605
-103.495
-42.3757
353.522
224.576
412.043
279.308
-2.02079
-31.0617
-1.55315
238.848
6.47678
316.757
-6.50603
434.608
-78.0504
426.679
432.663
432.235
433.967
-117.339
-111.343
432.12
550.639
433.151
411.685
-43.7358
-104.617
-60.9312
404.7
325.365
397.014
-48.3485
-2.46058
-41.9923
-6.7157
306.494
-13.2632
-35.407
-0.700558
-72.1078
-86.8085
429.896
434.086
-67.3317
-106.062
-126.181
-163.436
433.635
411.128
-118.925
-142.632
-72.8844
-149.603
-86.5918
-53.394
-118.964
-87.2998
2.04046
5.53033
4.58255
-4.48244
0.943896
-10.0736
-5.93283
-11.1301
-7.39432
-3.5399
-4.3299
-2.73982
-0.584372
-2.54818
-0.572133
-4.92201
-3.73231
-3.40645
-2.04276
-8.66053
-18.5711
-4.52059
-15.5696
-17.8183
-6.71676
-16.1014
-11.5465
-1.94447
-3.05635
-7.46921
-3.78588
-2.23828
-0.55069
-2.99647
-0.527591
-2.69491
-0.811336
-4.01435
-0.731809
-0.910639
2.02103
2.05596
-18.536
-8.837
-20.1846
-4.29471
-16.0699
-5.07299
-24.2591
-8.61002
-20.1052
-14.2616
-16.7412
-12.9047
-25.5444
-9.99057
-3.86871
-10.5512
-4.51548
-9.68379
-4.23346
-3.67767
-6.09637
-21.1474
-11.7587
-27.479
-6.82169
-26.4577
-12.632
-16.7705
-30.513
-25.1546
-27.3783
-10.931
-35.1935
-31.62
-26.4999
-48.8816
-13.2372
-56.4587
-36.615
-111.986
-35.4509
-57.7355
-48.3946
-52.2257
-42.0785
-113.562
-64.1999
-127.237
-117.837
-183.023
-68.3572
-147.008
-132.857
-185.34
-77.8411
-192.642
-123.23
-148.371
-103.39
-180.039
-103.011
-186.924
439.022
439.738
-185.731
434.292
438.484
-108.631
439.438
-92.8515
-180.186
-87.7345
437.847
460.109
-27.0693
-74.3449
-23.483
-62.9381
-21.776
407.601
298.507
-3.32052
-13.4798
-0.972797
-14.1968
-2.11258
311.517
-3.10177
436.488
418.345
437.229
372.015
436.96
385.268
-20.8545
434.591
317.776
353.566
276.902
380.662
155.422
-0.572487
307.474
308.626
-10.3845
285.168
-0.103488
423.833
433.501
361.657
436.978
411.494
434.343
455.817
312.173
418.297
302.772
421.45
271.617
441.162
251.27
2.09104
336.897
7.60417
288.951
-1.50415
231.518
-62.339
414.93
432.14
440.583
433.006
559.501
431.814
622.766
321.755
443.622
222.838
425.98
250.841
433.159
282.097
-0.111436
304.963
3.48647
128.719
275.142
-33.1361
430.76
430.195
417.078
432.796
468.445
432.242
428.334
274.348
365.738
306.74
428.907
7.28978
437.617
198.965
269.459
1.64391
196.608
-71.5027
376.479
430.909
442.154
431.854
445.934
431.641
423.142
275.854
424.502
299.77
451.7
234.334
387.914
232.208
5.08459
339.027
-2.76703
166.652
269.099
-1.28932
411.138
433.188
409.426
431.23
211.204
429.569
410.22
294.64
418.278
401.419
148.973
431.025
288.291
-25.7787
0.64795
276.118
-0.0613393
259.147
-1.03461
434.227
-64.6442
-111.865
430.513
430.272
429.048
433.977
420.825
-125.148
-131.694
430.032
410.961
432.838
-50.2159
-113.639
-69.0646
431.371
288.541
-113.518
-54.0643
0.455251
-47.6568
-2.57238
319.505
-3.11252
-42.7736
-1.28615
-114.196
-76.2671
-137.723
428.249
-73.0607
-166.498
-144.909
-159.057
-144.097
-126.476
-175.446
-144.292
-77.3435
-110.009
-76.0203
-115.473
-62.697
-111.516
-80.7983
-60.9436
-2.93955
-30.0102
-52.3793
-146.405
8.08829
-59.4136
-87.2159
-43.8626
-50.8348
-144.556
-117.515
-58.5543
-59.6237
-18.2589
1.90428
-15.3754
16.7674
-51.2995
12.0474
-30.5114
-18.2986
-17.9057
-51.3689
-46.3646
-26.9303
-14.2973
4.29178
-11.9068
6.44946
-28.5106
7.17616
-13.2621
-15.456
-12.6082
-9.18582
-26.3122
-22.2079
-16.0013
-11.9909
7.05015
8.11971
8.45804
0.519938
4.6292
-13.1011
5.56547
-9.96464
3.20786
-6.41268
-8.30589
-12.4028
-10.6346
-8.2713
-6.50743
-2.19965
-7.72189
-2.52667
-3.85625
-2.50813
-1.22744
-2.39295
-1.13768
-2.20014
-0.576881
4.35331
3.05102
-5.89932
-6.98633
-5.63337
-4.0511
-2.61053
-2.4204
-0.267981
-3.83063
-3.94189
-5.84986
-4.92829
-4.9555
-7.2991
-11.0465
-5.84751
-8.6029
-6.63135
-9.45127
-12.6409
-10.7718
-9.07276
-7.25256
-11.6422
-10.4829
-6.54351
-4.36505
-6.4593
-4.14189
-7.48698
-5.32552
-2.91957
-1.21636
-3.57314
-0.0215733
-3.37554
-1.38883
-15.2321
-4.63027
-19.742
-5.97941
-10.5652
-6.40762
-13.1564
-13.5668
-20.5969
-14.0781
-13.866
-13.1119
-17.8738
-15.7963
-23.136
-5.16742
-17.41
-9.33212
-26.7398
-14.9054
-23.7333
-22.1162
-32.9136
-28.2914
-36.738
-128.155
-13.2093
-47.6963
-61.7793
-151.587
-125.345
-58.0159
-50.893
-41.9377
-146.921
-84.4186
-32.0049
232.302
-134.607
110.387
-68.9591
310.983
433.623
-154.245
-136.369
-183.422
-97.1733
-174.773
437.432
439.935
-77.4422
-180.783
-103.549
-174.945
-89.7572
439.569
-33.3622
-72.3339
-22.2004
-71.749
-41.0527
-30.8691
-4.76139
-14.4028
-5.45228
-16.6625
-5.26705
-18.9672
-2.46137
-183.175
436.071
437.657
437.771
439.63
434.25
436.98
-90.9014
437.421
403.616
438.913
422.437
436.168
422.202
-18.6008
406.705
295.901
431.994
-25.5334
428.705
222.244
-2.50769
298.916
6.33638
-19.4059
-1.33173
276.982
1.4523
558.615
435.637
427.164
436.18
358.728
435.648
362.045
271.099
414.424
253.115
417.301
283.416
445.656
60.9146
1.3099
316.388
315.258
4.09629
228.856
-109.144
384.695
437.476
418.826
435.875
439.698
430.326
493.957
198.089
441.32
257.726
438.227
151.041
410.064
167.608
0.11284
376.484
-21.466
211.603
337.053
583.845
430.952
596.36
427.751
442.794
421.122
376.451
217.94
433.728
214.163
353.05
166.233
336.853
270.234
-24.6581
237.082
-26.1201
234.477
269.353
494.631
417.342
413.387
416.873
411.887
416.382
412.73
415.022
429.178
422.295
429.627
419.42
421.041
419.757
422.63
474.174
431.498
493.583
420.385
376.759
421.598
356.221
179.306
454.51
73.4535
338.576
269.663
279.572
252.53
169.634
266.498
457.069
247.819
705.965
456.207
433.198
211.242
425.444
395.991
429.299
427.603
211.206
397.21
202.225
272.224
195.083
441.734
235.545
383.666
-1.74085
220.558
668.732
257.467
387.62
428.763
411.218
430.257
551.112
429.092
402.778
185.017
428.306
329.71
440.434
230.954
427.308
208.522
-26.7189
286.778
0.512733
308.96
237.24
-3.28441
430.131
431.894
433.769
425.238
429.096
430.987
432.676
440.02
432.716
428.659
445.064
431.901
359.536
306.318
-52.0753
425.319
236.334
344.489
300.967
-8.11679
-41.3195
-0.36608
263.244
-27.1654
302.859
0.725857
417.722
169.202
-12.6955
330.744
419.304
187
-77.4009
433.874
-100.145
-165.11
432.775
434.444
-84.2171
-119.224
-123.414
-165.418
-136.053
433.204
326.649
-132.139
-148.14
-57.8527
-122.672
-70.2141
390.142
306.021
-131.369
-66.45
-1.69079
-37.4282
-9.38182
-0.474145
-39.2589
-9.74025
-159.421
28.1791
-55.6192
-110.613
6.18676
-72.2628
-116.457
-67.7438
-134.082
-156.495
-91.0647
-95.1433
10.7245
-27.3582
10.7732
-44.4875
3.78422
-15.8683
-27.121
-24.7983
-55.3329
-62.934
-26.7484
-31.0657
-18.1151
4.08598
-10.9544
4.27337
-8.13206
3.15816
-5.67826
-19.6398
-13.2651
-12.3734
-17.1881
-19.083
-12.2922
-13.8136
6.39633
0.666923
4.24037
7.52756
5.95838
2.94744
3.40192
-5.8101
2.21394
-5.33799
2.15759
-3.72806
2.24709
-2.42405
-9.69682
-7.07445
-6.38888
-8.27323
-9.06133
-4.33609
-5.71515
-4.68959
-4.62621
-3.18001
-7.73273
-5.49898
-5.07451
-3.7086
-1.69626
-2.5594
-0.53325
-3.89415
-1.76376
-2.95263
-0.726961
3.74146
0.0970936
3.07943
-5.13971
2.53011
-2.61107
-5.32231
-3.63619
-4.91386
-2.86126
-4.58044
-3.41131
-0.37195
-2.93397
-0.411771
-7.76446
-8.4852
-6.92999
-6.2088
-4.19179
-3.55758
0.0993534
-5.87569
-4.37302
-4.84817
-12.5536
-5.84711
-4.0901
-4.70331
-8.34947
-6.03217
-8.73136
-5.77615
-7.86412
-5.84119
-8.36603
-7.32974
-11.5465
-10.5225
-8.76593
-7.72761
-11.3777
-10.4795
-4.21027
-8.14027
-5.91807
-6.48698
-4.59684
-8.32912
-6.17552
-0.0928877
-3.56505
-1.43279
-3.55082
-0.561562
-3.69184
-1.49704
-181.444
438.249
439.851
-62.7941
-156.274
439.138
439.503
-92.2117
439.435
-162.629
-111.03
439.043
431.376
-39.2843
-30.5081
-83.7275
-38.015
436.823
-27.1595
-5.66472
-20.1409
-2.71393