/*--------------------------------*- C++ -*----------------------------------*\
| =========                 |                                                 |
| \\      /  F ield         | OpenFOAM: The Open Source CFD Toolbox           |
|  \\    /   O peration     | Version:  4.0                                   |
|   \\  /    A nd           | Web:      www.OpenFOAM.org                      |
|    \\/     M anipulation  |                                                 |
\*---------------------------------------------------------------------------*/
FoamFile
{
    version     2.0;
    format      ascii;
    class       volScalarField;
    location    "41";
    object      p;
}
// * * * * * * * * * * * * * * * * * * * * * * * * * * * * * * * * * * * * * //

dimensions      [0 2 -2 0 0 0 0];

internalField   nonuniform List<scalar> 
146404
(
-4.3537
-1.77179
-7.08641
-2.22613
-8.24999
-4.63629
-2.33816
0.514624
0.475853
-12.4929
-0.766075
-4.2647
-0.320272
-7.1797
-3.98537
-2.33763
-3.6105
-3.06685
-2.87716
-5.54921
-3.40631
-6.96674
-5.15347
-2.62139
-1.54111
-3.61267
-7.49354
-6.1412
-2.88392
2.43911
-4.78354
-13.8608
-8.07951
-2.41069
2.94787
-2.86264
-11.344
-6.58384
-2.4384
7.67566
5.69098
-16.9001
-2.61924
6.45918
-2.14396
-11.576
-6.96011
-2.85773
5.15141
-0.49993
-6.57537
-5.32858
-2.85355
3.69543
0.79067
-4.84575
-4.60009
-2.44883
1.05983
1.78723
-4.16476
-3.75966
-2.1034
1.90776
-4.34887
-1.6161
2.10536
-4.09895
-12.6628
-7.08699
-3.49844
6.22788
-4.10872
-19.21
-10.7017
-3.69703
8.5069
-5.43604
-26.3123
-15.4991
-4.58362
10.8215
-2.91326
-20.6375
-12.2457
-5.06727
17.1924
1.44789
-26.9623
-5.37486
14.9829
-4.69468
-22.7739
-14.5799
-5.74545
19.725
-1.3706
-22.55
-13.9256
-5.74649
13.1727
1.57535
-12.5122
-9.76628
-3.83824
9.30707
0.245322
-9.52937
-5.68294
-2.79567
8.14231
1.98886
-9.94055
-1.42045
3.7965
-5.60485
-2.79489
-1.91744
-1.85537
-4.29446
-8.81968
-5.58805
-2.03676
4.73204
-2.86729
-15.6021
-6.52063
-2.61405
12.4
1.55823
-23.6826
-5.81893
-4.3822
17.6953
-6.9073
-27.1267
-16.4167
-5.01794
25.1054
-24.7262
-39.6629
-27.819
-7.67963
38.6856
-30.2685
-46.2688
-24.3733
-10.0849
48.7169
9.75228
-46.4175
-11.0919
39.1224
-23.2176
-53.2528
-30.57
-10.0065
29.1386
-20.6413
-50.3064
-27.5336
-8.66562
28.6323
0.742587
-28.4137
-19.5624
-7.21724
21.0142
7.98485
-23.0716
-9.60176
-4.56548
11.4793
2.42399
-11.5498
-7.03967
-3.19542
5.29724
2.367
-4.44396
-4.43275
-2.4648
3.13845
-1.47545
-2.72078
-2.4057
-3.47856
-4.58536
-7.64161
-5.6664
-2.6233
3.24801
-5.22984
-16.2188
-8.4459
-2.69379
9.27172
-5.35722
-21.897
-13.6707
-4.36163
31.5835
-1.85246
-42.5117
-15.8677
-6.06183
61.6056
-18.3174
-79.3805
-38.292
-6.74693
108.004
-92.532
-130.606
-55.0389
-12.4824
116.274
-121.098
-156.444
-52.5501
-20.3186
145.021
-134.122
-43.4123
-30.8146
120.702
-130.123
-168.65
-61.2081
-24.1327
98.6738
-72.5539
-131.166
-64.2831
-21.8624
64.8909
1.81257
-91.0479
-59.0754
-12.9317
37.8645
10.6779
-45.5951
-28.7222
-9.35404
17.1857
3.09695
-17.9887
-12.5063
-4.08446
10.8625
1.37702
-8.49333
-6.96547
-2.81491
4.25484
3.28216
-3.32654
-4.28811
-2.40349
-6.49102
-4.46735
-8.06553
-4.75489
-2.4912
2.00574
-6.60788
-12.0017
-8.41651
-2.98698
7.18699
-6.82407
-26.6952
-11.7904
-3.63613
20.3356
-20.5733
-62.4239
-19.1608
-4.66689
66.6596
-121.664
-109.662
-37.5874
-7.64607
151.091
-111.651
-148.97
-55.1
-14.1449
318.201
441.971
-58.3903
-15.6281
388.248
440.643
442.397
417.962
391.591
437.646
441.658
438.105
314.823
378.617
437.081
440.9
429.047
312.068
435.091
-68.6028
-21.9178
184.381
-82.9885
-24.9767
68.6234
-48.4568
-126.874
-53.0534
-11.6522
23.3753
0.273825
-37.0552
-24.2443
-6.61364
15.3166
5.57683
-18.2317
-14.8058
-4.5632
9.18206
1.6512
-6.89499
-6.12348
-3.26684
2.3714
2.48741
-4.07749
-3.23009
-2.31645
1.31459
-3.37673
-14.4129
-3.07338
-1.6906
5.00159
-5.65672
-17.6115
-8.84875
-2.65809
14.146
-7.71724
-31.3771
-15.1713
-5.25621
45.8836
-74.0212
-87.6639
-29.0714
-8.21884
146.468
-80.8586
-141.812
-48.3402
-12.2336
382.322
444.57
444.903
-15.0601
419.91
437.455
441.107
413.313
305.486
421.134
433.985
438.403
446.056
334.866
419.715
432.488
438.537
430.813
287.029
415.669
431.899
436.614
421.397
335.752
396.764
432.165
437.564
406.093
298.592
351.667
438.072
439.593
430.26
-25.1371
169.758
-70.4377
-135.84
-66.5645
-26.0905
43.6269
-24.054
-75.1753
-44.3749
-9.19763
23.5583
4.22256
-27.3634
-18.6133
-4.11613
13.443
4.43568
-14.2018
-9.18114
-2.65526
8.24544
3.46513
-10.7644
-2.35031
-1.64367
1.39169
-4.29233
-12.6314
-5.77331
-2.82173
9.11596
0.493178
-20.7528
-6.85786
-4.26246
29.9445
-21.7809
-7.66369
86.8562
-74.724
-110.359
-41.2306
-14.8536
311.09
-139.357
-44.7622
-15.3903
420.844
438.404
443.115
399.478
281.896
424.538
434.98
442.239
385.012
263.042
422.771
431.721
441.003
437.784
307.18
421.061
428.965
437.071
440.898
216.029
419.879
429.579
438.63
464.278
324.344
414.838
429.985
437.713
354.428
306.927
391.609
432.589
433.999
435.445
316.511
304.364
433.348
438.981
-69.0493
-30.0595
86.893
-61.5973
-159.237
-66.0949
-13.9676
35.1256
69.2527
-57.0334
-6.47465
16.5184
9.0131
-20.6679
-10.5521
-3.60795
8.32964
2.51995
-8.38687
-4.96205
-2.73337
3.94715
-4.69374
-2.98616
-1.76298
-2.91867
-6.14039
-4.33054
-2.91155
3.0186
-4.56528
-14.0883
-7.83481
-2.60602
9.94247
-6.27716
-27.3734
-13.4676
-4.02909
31.8478
-26.0091
-47.4055
-25.7477
-7.45456
99.1263
-105.402
-164.394
-46.6239
-14.9737
386.447
443.362
445.201
445.038
-16.0229
424.031
437.205
441.952
395.441
270.985
424.451
433.473
440.934
469.367
206.794
422.968
429.535
433.484
303.896
246.482
417.686
425.771
419.661
353.082
252.493
418.813
425.891
427.802
298.456
240.579
418.141
428.697
436.77
450.709
168.573
404.61
429.286
434.135
418.536
256.309
351.946
436.625
439.991
391.154
318.203
125.899
-74.7628
-157.951
-77.2126
-28.3174
26.3703
-2.22903
-45.0155
-20.8124
-7.42033
16.384
2.2737
-15.3627
-11.9626
-4.31736
9.77726
4.21339
-7.30681
-6.83558
-3.2377
2.05295
3.87459
-2.01012
-2.95728
-2.63776
-9.45075
-2.86271
-5.89321
-4.54763
-3.29394
3.07464
-4.53784
-13.977
-7.654
-2.60558
10.0212
-6.52124
-27.7333
-14.0231
-4.19087
29.7732
-31.9928
-61.442
-34.4205
-8.13935
120.325
-68.6864
-139.636
-54.4063
-15.5887
392.424
444.078
444.161
427.385
424.417
437.837
442.396
447.814
340.204
425.142
433.899
448.739
457.18
220.625
420.94
429.713
422.337
343.469
270.914
416.344
424.933
411.371
349.043
263.516
415.249
425.257
417.993
348.384
258.855
419.513
429.402
435.595
465.246
219.485
408.269
430.152
435.358
449.257
255.449
358.977
436.175
438.625
420.858
326.238
140.916
-51.6991
-150.941
-74.9864
-29.6084
24.5919
-4.4011
-38.2057
-24.6246
-7.95106
17.8356
1.95668
-17.9959
-12.499
-4.48651
10.4807
4.04523
-7.62083
-6.98587
-3.31075
2.34145
4.00541
-2.08515
-3.51638
-3.04433
-2.7291
-5.81515
-4.14329
-2.8362
1.17033
-2.90153
-10.3886
-6.93219
-2.59101
9.25764
-2.33188
-20.2218
-11.9857
-4.86739
35.3346
-11.8244
-43.721
-25.3093
-8.67803
121.47
-116.52
-146.322
-60.4604
-12.5366
379.986
443.212
444.825
419.187
-14.7598
422.043
438.038
441.756
431.513
276.414
425.817
435.434
445.332
447.571
217.413
424.453
431.289
436.537
330.58
244.153
421.138
428.04
425.629
343.134
267.328
422.349
428.785
433.482
337.779
258.457
418.923
431.981
440.3
447.581
143.489
405.227
433.582
436.618
356.76
267.453
342.866
440.638
439.97
430.726
327.905
108.382
-60.1187
-181.908
-82.8253
-15.2557
34.9459
0.179218
-45.7894
-30.2514
-6.97662
17.0461
5.1232
-16.3451
-13.1863
-3.78687
8.16878
2.9698
-6.84104
-6.06409
-3.28619
1.62398
3.71375
-2.24015
-3.16755
-2.49002
3.1035
-2.42638
-11.9181
-4.40394
-1.96978
11.0036
-0.58847
-20.0548
-2.36699
-3.78908
28.7465
-12.0402
-5.87845
75.2775
-56.3745
-118.565
-50.1263
-11.8349
293.066
-148.591
-68.077
-19.9477
403.256
439.711
442.869
446.096
296.066
422.251
436.654
442.109
437.702
228.356
424.442
435.017
440.801
451.277
337.322
424.089
436.437
455.006
453.543
236.748
420.917
433.707
440.232
439.152
262.786
414.388
433.613
438.011
378.612
259.655
390.908
438.32
437.717
378.126
304.866
296.378
437.63
441.311
-65.7768
-26.3529
64.6038
-70.916
-121.399
-60.4632
-9.08223
26.1897
11.1328
-45.6256
-4.00491
13.7406
10.5085
-23.974
-13.1086
-3.00178
7.16764
5.67749
-10.7131
-6.81873
-2.5349
3.14802
-5.49834
-3.33527
-2.42345
-0.0289056
-4.30797
-13.7346
-4.62196
-2.06917
4.597
-4.97921
-13.6356
-8.09506
-3.28703
12.5679
-5.71956
-28.9176
-16.7955
-5.22415
36.1392
-33.0036
-67.954
-31.7858
-7.75599
135.238
-59.6036
-132.702
-69.105
-17.8644
337.483
445.471
446.402
-19.5549
398.893
440.701
442.279
437.054
268.508
411.771
436.73
441.063
454.608
256.41
413.791
436.717
445.907
365.488
177.836
408.851
436.059
439.638
449.52
265.72
390.806
439.466
438.404
410.761
296.644
343.502
441.33
441.547
351.363
-18.7403
95.687
-120.093
-127.241
-61.4224
-7.83795
13.9947
-8.48877
-36.1696
-19.8332
-6.11104
8.07492
-4.02269
-25.5849
-16.137
-4.19302
6.14594
-4.64718
-13.6714
-7.68316
-3.25136
3.40867
-1.09849
-13.0255
-3.94808
-1.96074
-7.99052
-3.40482
-7.10472
-4.62827
-2.65163
0.0712043
-4.04383
-8.4741
-6.46338
-3.05662
6.05655
-3.46383
-16.962
-10.3741
-3.2174
19.3581
-6.34743
-28.3254
-20.5887
-6.54949
51.5001
-38.7096
-69.8652
-38.3272
-6.86625
123.14
-89.9332
-132.283
-70.3112
-18.9282
285.27
442.471
-122.357
-56.9932
-22.0125
358.854
441.668
444.872
400.908
366.564
442.697
445.505
410.473
329.186
356.99
442.52
443.496
429.686
286.941
440.486
-50.4439
-17.0004
98.5263
-51.7058
-8.79193
36.6512
-30.2366
-59.3742
-31.4306
-6.47558
7.99618
-4.376
-19.9024
-11.3632
-3.36038
2.81381
-4.86878
-12.0603
-7.37541
-2.7025
0.979088
-3.2467
-8.54643
-6.13696
-2.82417
-2.8239
-2.20758
-6.74531
-4.5632
-2.64339
-3.93027
-3.07231
-6.11043
-4.73397
-2.32208
1.55408
-2.83116
-10.3428
-6.22347
-2.37838
8.66965
-2.74524
-17.4558
-11.0041
-3.43723
24.9182
3.07428
-36.9883
-17.2538
-4.81388
39.1124
-23.3184
-53.193
-27.0881
-6.70238
54.0344
-97.8499
-94.6036
-40.4437
-9.73482
73.8487
-152.625
-99.3079
-39.6314
-14.3089
82.0155
-157.389
-43.6003
-15.1889
75.4814
-140.745
-112.675
-41.9634
-8.15986
48.8356
-86.4319
-89.7722
-35.9479
-7.4168
32.7217
-16.4441
-60.3068
-31.7448
-5.53271
18.0523
-2.27611
-40.9792
-15.2936
-3.44908
6.41544
-2.81103
-16.2668
-10.6559
-2.81021
1.21574
-3.45875
-9.57966
-6.90408
-3.09345
-2.21191
-2.81895
-6.57479
-5.48689
-2.976
-1.35246
-3.38667
-8.35756
-4.88428
-2.20645
5.08605
-1.6536
-14.8004
-6.54383
-2.60112
8.77316
-1.16624
-20.2045
-5.54056
-3.37733
8.55267
-3.25769
-19.6043
-11.1737
-4.04936
11.0481
-5.93321
-26.3828
-14.533
-4.43699
24.6495
-9.33693
-35.0619
-21.9018
-5.02066
30.6094
-19.0888
-30.3027
-5.07464
12.5551
-14.4749
-38.4927
-13.5645
-4.51376
7.95708
-5.24163
-22.9168
-12.6416
-4.15637
9.80234
-4.3871
-21.1235
-14.4246
-3.80196
7.02366
-0.0854172
-22.2337
-9.35623
-2.52012
2.86135
-1.15513
-14.7009
-5.53289
-2.26587
-1.813
-2.75712
-7.69207
-5.2506
-2.84266
-2.33678
-5.2662
-4.09576
-2.85278
1.01089
1.21361
-1.30795
0.986803
-2.79802
-9.18984
-5.31114
-2.61286
3.67708
-2.45071
-10.4829
-7.31553
-3.21794
4.1364
-3.61124
-13.0381
-6.96148
-2.21755
7.60774
-2.16633
-15.6547
-10.0547
-2.40122
11.3765
-4.63033
-12.4021
-2.60962
3.81871
-6.52734
-17.5135
-6.83964
-2.59211
4.58003
-4.36796
-11.4132
-6.71776
-2.52972
1.08203
-4.24386
-10.8999
-7.39283
-3.19571
-0.510761
-4.07804
-10.2819
-5.88275
-2.51588
0.50932
3.4414
-17.0194
-7.97571
-1.37133
-8.96881
-2.64868
-1.84362
-6.36611
-2.04704
-6.1276
-3.55228
-2.312
-2.55275
-2.27626
-5.44495
-4.73182
-2.5127
-0.368473
-2.15123
-7.32122
-5.28171
-2.4468
1.33036
-2.50457
-9.27966
-5.238
-2.45753
4.49632
-4.84951
-6.28064
-2.229
0.339049
-5.51662
-10.354
-5.83122
-2.56748
-2.66917
-4.67454
-7.78941
-5.85804
-2.70402
-4.01544
-3.81584
-7.09085
-5.67798
-2.91708
-6.18286
-3.36579
-6.95607
-4.57572
-2.48679
-7.2919
-1.42467
-6.47856
-3.6947
-2.1462
-4.5834
-5.06404
-1.66209
-0.906445
-7.85663
-3.46089
-9.02453
-4.63749
-2.2538
-4.32963
-2.93447
-6.70611
-7.19534
-5.29134
-4.4866
-2.764
-2.34669
-0.0937285
-4.47109
4.70507
-7.27257
-5.86592
-14.8235
-7.61849
-5.45072
-15.3418
-6.22009
-4.48988
-2.63047
-5.48845
-0.917178
-2.26615
-0.173341
-0.875211
-0.0414472
-4.1515
15.0623
1.36804
0.204678
0.152828
-6.99822
-7.50921
-4.99556
-15.1762
-0.855354
-3.72256
-2.30623
-0.791253
0.0635675
-2.02839
-0.100668
0.611504
-0.249248
-6.25037
-6.82032
-4.8488
-3.6487
-2.44055
-2.16738
-0.122481
-2.97148
-3.22916
-6.51931
-6.87345
-5.35871
-4.51425
-2.95889
-2.55231
-0.0203918
-9.46573
-3.07268
-4.9066
-3.03449
-3.27078
-6.29237
-3.30011
-5.14744
-6.67468
-5.39076
-6.20529
-5.82477
-4.60682
-2.998
-5.11994
-3.70947
-2.5896
-0.0678407
-3.05176
-0.480974
-4.16964
-2.84528
-2.10609
-2.4859
-3.20159
-5.19257
-3.21
-5.92166
-6.25276
-6.14481
-7.35541
-6.87171
-5.36566
-3.68807
-6.06474
-4.02422
-2.93482
-0.449774
-3.06553
-0.582622
-7.50577
-2.07399
-1.80735
-2.04988
-0.656999
-1.24815
-2.40255
-6.44143
-3.20944
-5.51441
-3.03999
-6.59265
-6.00041
-7.36132
-6.00205
-8.12349
-7.52892
-9.57871
-8.74527
-3.78448
-4.2754
-3.12606
-5.80373
-4.25908
-6.48263
-4.5117
-2.34916
-0.181737
-2.56427
-0.907986
-2.44091
-0.799863
-1.69623
-0.359662
4.63799
0.582538
-0.0296387
3.26402
4.71984
-7.40278
-2.7517
-15.1079
-3.12256
-7.31094
-7.40255
-17.8887
-6.40844
-15.4574
-7.8236
-9.45987
-7.86405
-18.8455
-10.6244
-3.08299
-2.35428
-1.47846
-5.09763
-4.2271
-3.11791
-1.35485
-0.47418
-1.16915
-0.443143
-2.6897
-1.0431
-1.4062
-0.740201
10.1701
-3.86197
1.35213
5.34495
14.3268
3.61731
2.82161
-0.15306
-6.6548
4.75167
-0.0786188
-7.90566
-7.40658
-5.50038
-12.3046
-8.7989
-8.05612
-0.999999
-3.61318
-2.41451
-16.2055
-2.62652
-6.14536
-3.50506
-0.278177
-1.90835
-0.250396
-2.06717
-0.894048
-2.60357
-1.15246
0.524095
0.510389
2.86844
1.59139
2.26306
1.22382
-6.2072
0.412908
-3.36783
-1.4685
-6.04967
-1.32183
-4.05092
-5.73231
-4.01888
-3.94635
-8.84478
-8.10334
-6.25456
-5.77846
-2.84515
-3.30062
-2.81746
-4.98356
-3.41823
-4.90634
-3.72734
-0.382178
-2.56193
-0.105139
-2.3933
-0.970758
-2.54104
-1.0427
2.5783
1.64677
1.60547
1.81252
-2.91343
0.0383471
-2.05811
1.03418
-2.08148
-3.57794
-4.6981
-5.31147
-3.66759
-4.58582
-2.74992
-4.35366
-3.50769
-4.19005
-3.25919
-0.0601226
-2.38589
-1.01152
-2.70437
-0.507386
1.17545
1.80573
-0.919183
2.21155
1.15015
-1.91117
1.91466
-1.85905
-3.46722
-4.27509
-3.4229
-3.8411
-4.00082
-3.01863
-3.18936
-2.53289
-2.53196
-0.451438
-2.04077
-0.387648
-1.59263
2.31517
2.05404
-2.77547
-3.55236
-3.78862
-3.35021
-2.4826
-2.21299
-0.287738
-2.57406
18.3178
-1.47478
-1.49536
-1.33651
-0.248023
-7.73355
-2.8931
-1.03034
2.86192
-1.21779
-1.18018
-3.18405
-6.9805
-7.60187
-4.44518
-9.23025
-7.50274
-6.10649
-9.88729
-10.6613
-8.75248
-4.53027
-2.93935
0.972886
-2.32565
-4.77334
-3.00879
-2.31347
-0.337271
-1.73176
-0.39125
-2.14825
-0.874111
-2.8682
-2.70459
-2.43926
-0.969436
-1.05809
0.0789967
-0.998754
-6.27607
-3.60212
-5.53228
-4.04166
-7.92518
-3.86236
-7.42349
-6.2078
-7.31918
-7.34533
-9.90239
-8.98538
-9.88788
-9.16606
-3.33062
-5.52358
-4.28154
-6.09848
-4.30426
-6.87883
-4.96495
-0.370038
-2.54798
-1.00227
-2.87119
-1.24723
-3.0953
-1.27486
-8.47893
-6.99147
-18.5786
-3.03518
-11.4885
-0.165672
-26.4721
-9.69867
-19.8218
-11.3608
-15.0403
-12.8055
-27.2849
-17.6758
0.0965132
-9.19938
1.27655
1.04083
-14.0921
-13.5522
-10.1231
-9.4252
-20.1145
-15.8161
-14.7681
3.19663
1.49047
2.45607
7.87187
5.16156
6.23174
5.13416
2.63863
5.55756
4.9654
6.3443
7.67025
-2.74551
0.612465
-4.79589
3.54181
-11.1575
-4.52557
-7.68014
-7.03519
-11.5757
-6.37361
-2.57797
-4.68039
-3.12223
-2.46958
-2.81879
-0.397739
-2.20441
-0.948764
-2.09151
-0.494795
6.12538
10.5494
5.76447
-13.0601
3.99903
-6.54885
-13.4935
-7.31462
-7.49159
-4.22555
-5.67067
-1.2305
-2.88563
-1.42111
-1.10528
-0.383466
-1.31513
-0.206746
-5.42184
-3.43046
-3.86992
-6.3998
-7.34838
-5.92994
-4.71693
-3.1155
-2.39315
-0.380326
-0.7799
4.66673
-3.78287
-2.91318
0.080038
-0.461735
27.183
-4.18017
-6.9121
-3.67316
-11.9675
-31.5968
-8.45762
-7.24044
-12.6424
-8.2648
2.25825
-2.16265
-4.38113
-3.07144
-4.30895
-3.00436
-1.59163
-0.471209
-1.97242
-0.728832
-2.0227
-0.848377
-3.20347
-12.329
-2.60361
-14.9325
-0.315044
-24.1665
-13.0397
-9.5614
-15.2007
-8.14725
-22.7561
-13.6274
-16.3239
-0.245186
-28.4263
-8.58445
-26.8797
-3.85939
-54.0125
-18.0081
-29.0339
-20.273
-31.0428
-25.9157
-46.8281
-36.5575
0.802637
-17.411
7.65606
-0.147
-33.3713
-22.2139
-19.2829
-18.3991
-39.7548
-35.7538
-30.3
-7.98775
4.47964
-12.4752
6.45014
-16.4914
8.49776
-14.2822
-8.89658
-12.8116
-7.28048
-19.0806
-15.2852
-15.3606
-10.931
12.6942
-0.0985543
5.30587
9.49253
9.90629
6.31119
6.01647
3.83687
-5.47333
5.75856
-9.54465
2.51399
-3.18328
-8.04373
-7.26017
-5.05063
-12.5319
-9.7605
-6.86268
-6.61372
-1.57653
-2.8869
-1.86641
-5.97138
-3.0257
-4.1897
-3.19029
-0.732308
-1.46979
-0.375605
-2.41115
-1.07998
-2.46179
-1.12584
4.94173
4.49866
4.32561
3.3888
-4.65819
3.03324
-2.48149
3.11027
-0.836521
-4.09236
-4.49105
-4.81746
-1.71682
-3.22508
-2.21517
-4.23658
-3.02481
-2.70444
-2.68416
-0.190617
-2.58698
-0.550695
-2.41407
-0.18391
-7.59609
-4.27691
-4.04431
-5.59697
-6.28384
-5.54978
-4.81338
-3.54133
-2.80092
-0.348461
-4.36071
-3.44591
-5.75837
-4.0983
-2.60805
-3.05489
-4.23992
-5.68846
-4.28968
-5.8988
-4.60867
-6.74169
-7.28961
-6.70352
-6.53056
-5.99832
-8.3253
-7.73629
-4.80789
-3.71185
-5.12634
-3.57508
-5.74294
-4.23484
-2.3421
-0.931759
-2.75347
-0.418706
-2.50021
-0.9939
-15.3752
-2.95232
-28.1
-4.64057
-14.9435
-0.108831
-28.6397
-10.8266
-24.5218
-18.7234
-18.1789
-15.5581
-29.8892
-20.7598
-25.2675
-6.1134
-23.4586
3.52985
-36.6728
-4.26154
-48.6863
-14.3741
-24.6281
-22.2198
-36.4675
-21.8002
-53.9903
-37.7167
-47.0837
-3.9293
-62.7138
-123.723
-151.829
-111.557
-154.614
-37.4301
-54.7424
-41.1748
-93.9966
-57.9211
-132.132
-47.5377
-7.3607
-45.5381
-72.4372
-103.499
-160.3
-44.0101
-46.9977
-39.2833
-47.1461
-130.863
-60.7091
-18.9939
6.4825
-20.3805
6.64498
-54.6815
49.5873
-27.5206
-23.5035
-21.1841
-67.0338
-56.2086
-50.0635
-21.3444
7.0413
-13.6769
19.807
-43.4922
7.35355
-14.2688
-16.3999
-16.5396
-13.1523
-41.2821
-38.7352
-18.925
-19.7885
5.22651
-2.17055
3.61393
7.6076
5.91885
4.72173
4.49552
-1.05119
2.99162
-0.207689
2.89137
-1.68906
3.10063
0.293591
-5.33513
-2.00202
-3.44429
-6.06528
-6.72807
-3.75263
-4.90464
-3.43201
-2.8879
-2.87145
-6.17607
-4.47349
-4.74441
-3.95228
-1.11433
-2.43748
-0.404242
-3.09007
-1.41768
-2.63564
-1.181
3.34616
3.09896
3.61458
-0.517305
3.11436
-0.422547
-3.09015
-2.61736
-3.96651
-2.68339
-4.01597
-3.07076
-0.152368
-2.56174
-0.490495
-4.66089
-7.34947
-7.53711
-5.16798
-4.66623
-2.55788
-2.52967
0.32881
-6.21263
-4.19311
-10.0223
-4.19693
-2.8182
-3.77811
-4.31309
-5.89334
-4.36725
-7.16657
-4.97803
-6.66605
-6.5438
-5.99358
-7.37062
-5.25545
-7.8966
-7.16818
-5.09604
-3.42307
-4.69623
-2.65538
-5.25557
-3.78301
-2.70051
-0.400268
-2.44055
0.119257
-2.25928
-0.824541
-42.4578
-5.87284
-66.0823
-37.3756
-77.4592
-92.201
-156.517
-28.4111
-66.1299
-53.3036
-72.2062
-46.4361
-141.992
-72.518
-81.46
-105.029
-142.459
2.95217
-92.3278
-162.939
-59.2429
-127.168
-87.1856
-78.072
-154.654
-78.8032
-145.361
-96.405
-177.5
-153.646
440.943
443.775
-91.8174
-155.43
-72.3662
-147.377
-74.5913
443.051
-27.6191
-50.9461
-30.6529
-54.3037
-23.2243
-23.723
-3.61449
-14.9881
-4.72191
-16.978
-5.56508
-16.3272
-2.93619
-99.4767
142.776
-187.993
341.086
436.53
352.196
432.743
-182.889
-184.714
-166.093
442.197
443.536
439.861
442.34
-65.6637
-145.009
-45.0485
442.786
395.03
441.912
372.902
-35.2161
-42.1504
-36.6429
425.428
-23.9553
449.709
-6.55347
-29.1524
-7.90958
-19.6263
-3.2156
-3.69021
-143.031
126.116
-154.837
352.587
432.576
345.274
430.728
-158.274
-194.847
439.344
441.883
438.904
441.649
-44.8731
-162.754
-66.7753
441.58
408.445
441.272
366.5
-35.874
-54.0459
-38.5426
434.754
412.196
-30.3331
-9.80952
-24.2095
-10.5359
-3.33892
-26.1134
-5.39054
-194.657
-71.184
-158.995
439.117
441.808
437.183
-77.5716
-150.919
-96.742
441.3
391.961
-79.8779
-37.5409
-61.1947
-40.1024
423.289
-30.5711
-68.3937
-31.3022
-9.09329
-21.664
-6.16061
-26.8353
-5.46242
-22.8326
-3.57386
-127.699
-68.3566
-123.447
-130.804
-48.3265
-126.575
-106.314
-131.138
-103.808
-129.435
-87.3184
-137.777
-100.412
42.9926
53.7637
41.6163
110.973
19.2679
75.9988
29.2631
-77.9128
24.0976
-60.3025
-17.0305
-96.6044
-72.6418
-54.7594
-55.8102
-110.824
-95.318
-33.2902
-50.1113
-27.0501
-89.0548
-46.7499
-72.6155
-37.7874
-36.145
4.81999
-16.6854
-14.139
-49.7049
-1.31527
-28.1756
-42.2821
-25.8892
-29.7376
-67.6575
-64.5742
-38.3992
-41.7838
3.87067
6.35715
4.91101
3.00691
3.63146
0.51208
2.76476
-0.836768
2.73737
-1.41647
-4.27765
-4.76044
-5.40588
-3.07301
-3.92734
-3.4321
-4.86743
-3.73914
-3.29031
-2.63
-1.02465
-2.45679
-1.04435
-2.13391
-0.466127
1.72899
3.37097
2.89299
-2.06691
-3.04623
-3.49649
-2.73062
-2.42099
-2.32815
-0.238439
-10.6838
-4.81499
-3.13281
-0.836378
-4.94358
-7.73104
-5.31568
-12.3597
-7.92091
-4.88304
-12.464
-6.11182
-4.42642
-2.20998
-2.89114
-2.07829
-3.20563
0.172141
-1.66565
-0.352669
-3.97011
-1.79649
-2.88713
-1.72982
-2.18975
0.443563
-1.67341
-7.78806
-5.57163
-8.2518
-6.22221
-11.1117
-6.3723
-10.7651
-6.16198
-9.68394
-8.5564
-11.23
-8.473
-11.9688
-10.0067
-2.96528
-5.99173
-4.19934
-3.79415
-2.77552
-5.71636
-3.82008
-0.340007
-2.54401
-1.00298
-1.89032
-0.764183
-2.48468
-1.04267
-156.259
-127.397
-168.828
-76.9932
-186.795
445.009
-66.6627
-144.854
-72.3549
-138.388
-79.3562
-63.8748
-160.966
-161.186
445.011
445.575
439.169
443.428
-70.6558
-157.095
-68.6738
445.425
-59.8273
441.734
381.689
-23.1878
-58.2305
-23.853
-48.1503
-20.8888
431.183
321.025
-4.54173
-16.4459
-1.86641
-14.7708
-2.00256
317.644
440.569
443.592
439.736
442.354
437.015
440.465
-69.2053
442.883
469.124
440.45
412.447
439.495
421.523
-22.7349
432.081
412.929
317.721
424.873
350.005
-2.19191
-14.7659
-3.94975
319.7
21.0865
279.335
6.77171
442.935
438.732
440.593
434.287
439.06
433.466
437.691
409.964
442.022
351.765
439.096
419.166
438.236
448.936
457.249
360.342
447.52
314.969
451.454
248.662
-3.63222
337.98
-0.814221
248.588
3.35018
306.478
2.20791
439.77
438.039
441.242
432.71
437.038
432.031
436.732
411.795
440.534
398.157
438.169
440.873
436.254
481.641
330.165
418.094
329.989
431.261
299.991
376.974
295.066
-0.755811
-2.36226
299.444
299.828
4.39192
441.369
436.733
441.141
432.926
437.283
435.021
438.267
380.611
440.585
-78.5019
436.819
421.408
436.406
383.864
-65.9952
-28.0738
358.054
224.214
417.821
280.936
-3.41535
-22.9358
-4.52755
239.312
4.89829
317.317
-5.30058
440.959
-52.5288
432.843
438.765
438.35
440.088
-81.4193
-98.2398
438.331
557.697
439.337
417.481
-29.1724
-86.8445
-33.1131
411.435
328.195
402.593
-30.0119
-4.44069
-27.0936
-6.83903
307.847
-16.4268
-25.0431
-5.55789
-103.457
-129.97
435.942
440.322
-60.4074
-124.488
-137.289
-117.006
439.812
417.006
-128.378
-103.627
-40.2475
-76.3006
-46.6696
-31.7269
-71.9633
-51.8811
3.72687
6.71939
6.10004
-2.3876
2.71363
-7.90476
-4.06834
-8.92373
-5.58385
-2.54863
-2.8598
-1.69776
-0.404838
-1.71473
-0.452258
-1.35889
0.0594208
-0.108544
1.15435
-4.67122
-14.798
-1.36941
-12.4389
-14.171
-4.4944
-13.006
-8.97198
-0.231775
-1.8527
-5.24905
-2.50224
-1.33558
-0.387752
-2.02194
-0.58145
1.07921
2.93573
-0.117559
2.65531
2.28232
5.53329
5.37542
-14.5377
-4.80499
-16.1417
-1.20287
-12.8094
-2.08103
-20.6811
-5.83959
-16.1826
-10.9049
-13.582
-10.2604
-21.8678
-6.94759
-2.70416
-8.03481
-3.32032
-7.38992
-2.71788
-1.1991
-3.98012
-17.0975
-6.90876
-22.5004
-3.99636
-22.7365
-7.94639
-13.3369
-24.8399
-20.0164
-23.5126
-7.39037
-31.3065
-26.7232
-23.9089
-43.4088
-8.17556
-48.8283
-31.0312
-92.9482
-27.712
-45.1802
-35.7391
-44.9614
-36.3938
-86.2478
-47.1662
-113.366
-140.017
-170.68
-67.4109
-121.002
-131.951
-172.17
-54.0727
-137.485
-77.9383
-106.209
-64.8395
-138.949
-65.3214
-166.64
445.075
446.033
-160.763
440.302
444.698
-66.2139
445.718
-60.0313
-143.433
-54.586
444.036
466.204
-23.0467
-47.7179
-20.3888
-41.4229
-20.851
413.768
300.466
-3.68086
-14.8785
-2.67082
-15.357
-3.13831
313.709
2.83769
442.762
423.895
443.444
377.628
443.039
388.643
-19.916
440.395
317.89
357.723
277.254
385.286
156.206
-1.94268
307.241
309.999
-5.5409
286.642
-0.347895
430.047
439.7
365.985
443.047
416.727
440.356
463.179
313.136
423.968
304.604
427.273
271.948
446.695
247.769
4.56013
338.688
6.31762
288.795
-1.52121
228.195
-85.9098
420.079
438.317
446.655
439.058
566.929
438.042
630.507
323.272
450.02
225.385
433.051
250.922
440.101
286.126
0.241143
306.132
4.89295
107.959
278.511
-38.4742
436.56
436.283
421.874
438.968
475.962
438.334
435.538
274.759
369.774
307.219
435.898
12.3378
444.757
197.77
270.612
-0.188179
199.388
-71.202
380.716
437.117
448.384
437.917
455.051
437.611
427.38
278.353
429.072
301.059
458.595
238.162
393.606
238.727
2.57127
340.066
-4.805
172.826
273.896
-1.30796
417.201
439.309
415.283
437.232
216.713
435.493
416.452
295.739
423.783
408.724
159.332
436.838
288.743
-24.6913
-5.41351
279.107
2.207
258.958
5.78553
440.316
-57.276
-131.116
436.474
436.452
434.502
440.075
426.545
-131.404
-92.725
436.025
416.935
438.962
-30.7857
-71.7557
-38.2563
437.524
289.027
-70.9294
-35.7932
-5.88142
-28.5569
-4.12039
318.957
1.40583
-30.5635
-5.16238
-133.515
-96.1678
-163.474
433.526
-91.2599
-195.746
-103.23
-152.697
-109.162
-82.1916
-179.547
-98.5655
-43.9368
-66.9673
-44.7046
-71.9501
-39.9757
-61.4394
-45.2065
-61.2729
-2.15743
-29.6652
-61.9318
-148.645
8.55433
-56.8836
-64.4052
-40.7195
-41.4445
-130.149
-70.4444
-54.4871
-48.7065
-17.455
3.08453
-13.409
18.1003
-49.2598
10.8673
-25.0856
-15.7384
-14.4328
-47.1974
-38.9769
-24.1855
-12.1039
5.99567
-9.54216
5.966
-26.6049
8.1677
-11.6716
-12.3589
-10.1938
-6.98987
-24.3371
-19.7239
-14.0318
-9.91419
8.48539
9.08761
9.50923
1.51757
5.95944
-10.7856
6.68081
-8.40247
4.58832
-4.88539
-6.58846
-10.6174
-8.61883
-6.60031
-4.8539
-1.14926
-6.03398
-1.55078
-2.74365
-1.57917
-0.876269
-1.5661
-0.847191
-1.26205
-0.436274
5.61402
4.40912
-4.41077
-5.30714
-4.04947
-2.91566
-1.82709
-1.52449
-0.292348
-0.598384
-0.801126
-2.80059
-1.798
-1.91954
-4.20517
-8.0779
-2.81504
-5.82664
-3.66961
-6.57582
-9.76747
-8.20524
-6.36301
-5.06502
-8.83492
-7.91087
-4.55351
-2.9176
-4.34602
-3.21434
-5.49296
-3.95962
-2.02504
-0.869064
-2.80353
0.166289
-2.55095
-1.06165
-11.9886
-1.67107
-16.3274
-3.09911
-7.53414
-3.45146
-9.98611
-10.7158
-17.0418
-10.9006
-10.8726
-10.2749
-14.3515
-12.4849
-19.4323
-2.19141
-13.8411
-6.10923
-22.6211
-11.706
-19.702
-17.8561
-27.5151
-23.2735
-31.8895
-101.268
-10.4464
-40.6489
-65.0504
-127.976
-94.2156
-42.979
-41.9137
-32.7627
-106.324
-53.0132
-28.695
238.591
-130.444
116.146
-86.7863
316.632
439.995
-122.205
-139.209
-163.787
-121.423
-164.787
443.379
446.136
-53.6663
-146.16
-60.6842
-140.582
-57.9688
445.552
-29.7017
-40.9922
-21.6987
-46.8614
-31.4461
-23.8095
-4.60707
-16.54
-6.04407
-13.772
-4.46692
-16.3618
-2.30646
-159.688
442.268
443.812
443.884
445.988
440.309
443.099
-54.8108
443.588
408.862
445.162
428.523
442.189
428.518
-19.8803
413.018
299.752
437.067
-20.4664
434.893
224.889
-2.782
300.779
12.3844
-16.7874
-1.61467
277.924
0.0400003
563.715
441.74
432.237
442.17
363.667
441.64
366.418
273.767
420.243
257.414
423.236
285.564
452.365
103.085
3.68196
318.786
317.085
4.02166
253.111
-103.362
389.53
443.45
425.444
441.921
444.761
436.746
503.989
198.947
446.797
256.599
444.392
173.093
415.003
169.372
0.0794763
382.5
-38.5976
214.781
340.583
591.237
437.223
604.875
434.502
447.684
427.174
382.282
207.837
442.016
217.27
354.23
169.967
346.816
266.607
-37.4308
237.852
-33.094
236.23
260.5
473.904
424.188
420.028
423.539
419.166
423.866
419.731
422.193
435.619
428.957
435.89
426.277
425.638
426.555
429.783
483.53
437.654
504.572
427.347
382.09
427.815
362.618
182.579
462.513
76.7755
347.59
267.911
282.29
259.318
176.86
261.782
436.254
254.035
668.667
465.576
439.301
216.813
431.684
401.201
435.408
438.89
215.27
404.301
219.541
275.227
208.883
449.242
243.014
393.567
1.39299
224.71
633.177
262.788
387.459
434.657
417.579
436.005
559.974
434.716
407.12
194.734
433.82
329.483
448.314
238.457
431.425
204.204
-20.7417
285.717
-0.524769
312.008
236.493
-3.80677
436.069
437.303
439.598
430.979
434.914
436.74
438.341
445.565
438.772
434.21
450.684
437.474
365.224
305.292
-35.5696
431.128
233.775
348.528
298.299
-5.85139
-30.3869
-6.47148
261.08
-23.643
300.028
-1.77277
422.395
170.771
-24.2337
334.987
425.142
189.686
-73.4915
439.735
-120.957
-202.426
438.457
439.967
-85.7105
-182.089
-75.7161
-182.425
-76.5682
438.806
332.38
-172.561
-89.2112
-38.9046
-67.2199
-45.7491
395.252
304.291
-74.9357
-45.3605
-4.32079
-28.4777
-8.70553
-7.23139
-31.7604
-10.0819
-169.816
31.1114
-74.776
-169.636
1.79021
-72.9236
-75.0654
-52.0239
-165.326
-103.923
-82.2221
-61.0102
10.0759
-26.0737
8.84495
-42.3808
2.56528
-16.4232
-25.1976
-21.6869
-48.6466
-41.3622
-25.5592
-26.115
-16.8964
4.98592
-9.42288
4.63965
-7.82437
4.01508
-4.43379
-16.2652
-11.5018
-10.134
-15.8881
-16.3967
-10.9728
-11.5574
7.39111
1.67208
5.55373
8.5377
6.92926
4.06988
4.67299
-4.41733
3.55322
-3.91067
3.20488
-2.50646
3.52413
-1.08016
-7.91695
-5.53877
-4.92225
-6.9373
-7.38714
-2.95879
-4.24813
-3.57459
-3.36583
-2.26589
-5.89812
-4.3052
-3.70996
-3.06789
-1.36879
-1.84571
-0.473396
-2.84522
-1.27193
-2.60568
-0.465154
5.03626
1.22742
4.40537
-3.80296
3.81849
-1.2461
-3.91447
-2.27828
-3.27419
-2.03251
-2.98685
-2.8224
-0.306247
-2.56505
-0.26489
-5.00798
-5.75479
-4.58591
-4.08279
-3.69827
-3.31662
0.208303
-2.86973
-1.24201
-1.83049
-9.45137
-2.86467
-0.97516
-1.70517
-5.61052
-3.20541
-5.96307
-2.87365
-5.08548
-3.06696
-5.6429
-5.06979
-8.70528
-7.98419
-6.02558
-5.30311
-8.49631
-7.94144
-3.31424
-6.06236
-4.43631
-4.57092
-3.92661
-6.29832
-4.71597
0.112655
-2.76703
-1.12975
-3.24219
-0.38394
-2.9771
-1.20168
-187.001
444.015
446.027
-65.7655
-159.537
445.199
445.517
-61.8481
445.398
-142.471
-75.8019
445.056
437.669
-27.2104
-22.8068
-56.3178
-23.1869
442.93
-18.1096
-4.61264
-16.0247
-2.2257
-15.3524
-3.86692
-13.4741
-1.07724
445.996
438.763
442.416
444.202
444.861