/*--------------------------------*- C++ -*----------------------------------*\
| =========                 |                                                 |
| \\      /  F ield         | OpenFOAM: The Open Source CFD Toolbox           |
|  \\    /   O peration     | Version:  4.0                                   |
|   \\  /    A nd           | Web:      www.OpenFOAM.org                      |
|    \\/     M anipulation  |                                                 |
\*---------------------------------------------------------------------------*/
FoamFile
{
    version     2.0;
    format      ascii;
    class       volScalarField;
    location    "22";
    object      p;
}
// * * * * * * * * * * * * * * * * * * * * * * * * * * * * * * * * * * * * * //

dimensions      [0 2 -2 0 0 0 0];

internalField   nonuniform List<scalar> 
146404
(
0.672855
0.151235
-10.3829
-1.48148
-3.31006
1.84743
0.17996
-4.69684
-0.921956
-5.08875
1.28537
-10.6141
-4.253
-3.57061
0.931354
0.305392
-0.486783
0.833414
-0.603661
-8.07204
-4.59198
-3.39741
-0.284454
-0.400143
-3.43804
-4.06279
-4.03324
-0.571562
0.205821
1.40757
-3.64932
-8.42015
-3.56765
-0.631143
0.939319
-2.85466
-6.0269
-0.779394
-0.00909162
3.34945
3.89175
-9.12029
-0.912914
1.63057
-6.12087
-9.19002
-1.10109
-0.0136621
-0.609661
-4.94324
-5.31343
-0.0568797
1.08937
-3.13744
-3.53444
-2.32259
0.453752
0.584052
-6.84899
-3.31288
-1.02409
0.858361
0.704796
-0.500276
3.24846
1.93934
-0.00677057
-5.07902
-8.27271
-1.6504
-0.508003
4.99479
-4.0036
-11.2638
-5.48073
-1.35907
7.34436
-4.2066
-13.9368
-7.69453
-2.21817
8.95392
-1.50147
-11.757
-6.13176
-2.2004
12.9734
0.975383
-17.5302
-3.02702
8.9004
-6.74103
-16.2694
-5.81867
-1.82442
12.8422
-4.8701
-13.7342
-4.77896
-1.43484
6.55979
-2.66006
-9.31644
-2.97509
-0.707646
2.25325
-5.43322
-7.71116
0.591259
1.12867
1.0155
-3.88678
-2.43183
1.91479
-1.22725
-4.36051
4.16681
1.41751
-2.94334
-3.65251
-4.12108
-0.157194
0.27322
3.45728
-3.63526
-9.58347
-0.734035
0.747915
10.8521
-0.369992
-19.4965
-2.26525
-1.36033
15.3541
-8.6403
-19.9445
-8.80175
-1.7131
25.4759
-19.5118
-22.2985
-13.1015
-4.31699
37.4895
-30.2286
-28.5534
-16.7668
-5.79083
42.3175
10.302
-25.9413
-5.63201
33.7661
-24.9348
-31.9836
-15.4994
-4.43581
20.404
-17.7826
-33.1938
-15.84
-1.2191
19.911
-4.55761
-20.8215
-11.101
-2.67009
13.7531
2.09709
-20.6663
-3.68472
0.820881
5.51778
-1.50243
-6.92465
-0.451354
0.136266
-0.232465
-1.28597
-2.54539
1.02227
1.06424
-0.620591
0.577593
0.976436
-0.28419
-3.39892
-3.67837
-3.65006
-0.238171
0.335544
4.14497
-3.49929
-9.49905
-4.09278
-1.23283
9.47469
-4.37809
-14.3897
-6.12956
-1.77968
29.3293
-3.70986
-31.6001
-8.35316
-3.59036
57.8358
-23.5712
-45.0466
-19.1311
-5.06836
87.0266
-133.681
-64.7252
-18.0253
-3.98975
106.425
-205.174
-77.2852
-22.6891
-5.87085
132.127
-195.323
-23.6905
-7.96554
103.249
-218.17
-81.8532
-26.1282
-5.11584
77.7705
-169.347
-65.3504
-21.0621
-6.14335
49.9768
-17.5148
-53.4059
-22.6094
-5.9659
28.1619
4.19143
-33.9493
-13.1536
-2.93674
12.7342
0.582607
-11.4758
-5.67768
-1.67776
6.52335
-0.348239
-5.95274
-2.08308
0.0722229
-0.289482
0.135281
-1.50732
-0.213275
-0.142253
-6.48878
-3.85009
-3.75755
-0.933531
-0.136048
3.02166
-4.25272
-8.39629
-2.7704
-0.508447
9.08296
-5.11045
-14.7232
-6.04733
-1.98441
22.783
-11.6595
-23.8607
-8.59028
-2.38551
59.0387
-122.273
-46.2245
-15.4334
-3.06031
122.617
-205.055
-73.9512
-20.4749
-3.73968
312.052
451.897
-21.223
-5.02353
394.535
450.245
449.949
422.653
398.379
447.468
448.926
443.942
306.041
383.369
447.202
448.757
435.365
308.832
442.128
-23.4306
-5.78913
168.895
-27.1202
-6.60597
55.2887
-62.7604
-49.7826
-15.3072
-3.33293
18.7402
-0.112105
-20.5594
-9.9145
-3.0163
11.0109
1.47712
-12.802
-7.0134
0.225385
4.79223
-0.995315
-6.23898
-1.13729
1.21663
-2.31374
-0.650957
-1.39362
0.41099
1.4972
2.1282
-2.51342
-11.3195
2.51274
1.66933
6.49724
-3.98926
-13.8612
-3.0371
0.453745
15.6933
-5.98468
-20.7043
-10.4463
-1.9954
48.0789
-54.9228
-37.3012
-13.1603
-3.28245
127.287
-188.569
-74.6445
-21.402
-4.3002
386.421
452.543
452.276
-4.3073
428.488
446.895
448.132
412.328
291.311
430.528
443.048
445.502
445.934
317.395
429.084
442.039
446.345
431.076
280.786
424.044
440.882
443.972
423.437
319.565
402.982
440.149
444.815
407.425
285.255
353.325
445.881
446.527
439.778
-4.28027
167.029
-150.716
-103.446
-23.8029
-4.50994
37.5736
-30.337
-39.5069
-18.635
-4.7251
18.7401
0.162987
-21.4633
-11.686
-0.459388
9.18834
0.572274
-13.3306
-3.33658
0.752283
3.68969
-0.903597
-8.79166
2.13922
0.904714
3.08529
-3.09753
-7.29178
-1.17215
-0.137356
11.3242
2.23122
-15.6284
-4.28078
-1.81838
31.1312
-14.0727
-4.72168
73.7538
-86.0574
-59.3895
-18.6772
-5.58597
308.769
-66.5358
-19.8127
-5.73482
429.13
447.437
450.278
400.296
269.686
434.401
444.481
450.411
368.35
279.852
433.153
441.791
447.719
442.6
300.918
432.156
439.537
444.173
439.827
229.43
429.649
438.901
445.705
464.467
354.101
422.735
438.503
444.277
366.997
332.483
398.331
440.651
440.581
438.941
295.71
305.824
439.545
445.737
-21.085
-5.01812
70.2436
-85.3229
-71.8639
-23.0347
-6.34416
27.9424
63.149
-34.6901
-2.73874
12.0215
5.59133
-17.9865
-5.44208
0.296349
3.99446
-0.683687
-5.05727
-1.21794
0.130725
1.28734
-3.22062
-0.155807
-0.301286
-0.0453263
-1.56527
-1.62469
-1.10071
5.19198
-1.48482
-8.16638
-4.06699
-0.616909
11.7898
-2.64249
-13.9135
-6.93758
-1.92456
35.6815
-22.0099
-23.3065
-12.7447
-4.58445
86.9786
-185.271
-68.5357
-20.7068
-4.95048
391.901
453.478
450.985
452.926
-4.84527
432.651
445.899
449.059
397.665
258.844
434.505
443.273
447.458
468.053
251.544
435.359
441.162
431.265
313.551
260.713
431.919
438.535
427.599
352.86
251.096
430.733
437.524
426.483
306.474
252.812
426.647
437.24
443.032
452.821
199
411.394
437.394
440.156
417.592
247.806
352.21
444.981
446.407
394.042
295.172
105.061
-208.467
-70.0446
-23.2458
-6.62478
19.8661
-8.40029
-25.2942
-5.58351
-1.45007
12.3278
0.482965
-8.63582
-4.40945
-0.423911
5.88609
1.07586
-4.66595
-2.02305
-0.044718
-2.5219
1.88889
0.19378
-0.312111
-0.355754
-7.35886
1.19189
-2.69754
-0.757194
-1.15491
5.23008
-1.24464
-7.75109
-3.72996
-0.711565
11.8818
-2.98844
-14.1477
-7.08806
-1.99144
37.3807
-27.5747
-24.6312
-12.314
-4.58676
109.408
-154.739
-86.6452
-20.8556
-2.99447
398.037
452.2
451.068
432.15
432.723
446.007
449.287
446.269
326.692
435.349
444.349
455.035
453.442
233.542
434.676
441.665
433.153
343.001
261.824
429.756
437.541
424.694
360.812
264.92
428.706
436.471
428.678
347.201
253.587
427.917
437.959
441.257
468.662
235.121
414.969
438.316
441.553
449.771
253.175
361.115
444.258
446.061
421.647
311.931
123.203
-143.609
-68.4192
-21.6102
-5.86919
18.6773
-3.88166
-20.3034
-6.67323
-1.23858
12.7446
0.31907
-10.0197
-4.42967
-0.524561
6.31671
1.18101
-4.27331
-1.69417
0.571143
-2.40218
3.26514
0.346493
1.09943
0.687031
0.477717
-0.930296
0.163273
-0.805981
2.86141
-0.576673
-5.21765
-1.11735
0.171861
11.7693
-0.161989
-11.9303
-5.3158
-1.21019
38.3459
-9.49615
-24.2688
-12.5064
-4.67751
102.274
-192.413
-62.5714
-21.4853
-4.99266
382.391
451.553
450.802
420.878
-5.70404
429.331
446.073
447.622
432.142
269.195
434.58
444.137
451.457
451.587
251.409
435.484
441.955
437.127
332.245
258.805
434.568
438.878
428.895
346.422
261.84
432.878
439.125
433.948
337.578
260.154
426.634
440.319
445.798
448.63
162.818
411.533
441.725
442.187
359.062
265.831
341.852
448.342
446.369
438.307
313.536
89.6344
-207.369
-80.9161
-21.7872
-6.28962
27.779
-3.26084
-25.5948
-15.0447
-2.84489
12.5508
1.56107
-10.5505
-5.59796
0.502575
4.00905
0.123654
-4.78986
-0.347699
0.758836
-3.17669
1.24284
0.992471
0.115821
0.531629
3.47389
-1.59277
-5.39675
1.01075
1.23678
12.0408
0.499711
-12.9719
0.522074
0.167764
29.1384
-6.50127
-2.11327
67.138
-68.0441
-57.6203
-18.0059
-7.12526
286.614
-69.722
-21.6617
-6.0291
408.047
447.351
448.016
447.004
285.513
429.244
444.247
448.55
438.294
232.901
432.214
442.539
445.373
452.588
351.712
431.909
443.734
458.686
450.067
249.599
428.174
441.702
445.949
442.752
261.779
421.308
441.362
444.073
375.392
258.88
394.971
446.394
444.071
377.713
283.316
289.119
444.308
448.463
-20.8716
-6.18326
57.5447
-80.773
-57.4047
-21.6382
-3.61307
23.0094
13.3443
-26.2658
0.100682
11.1612
5.32083
-20.8965
-6.18176
0.257226
3.89706
1.80346
-8.29482
-0.572705
1.41292
0.649413
-2.12692
0.261353
1.02849
-0.92994
-5.417
-9.38521
0.946323
0.846053
4.00802
-4.78222
-9.73501
-2.5321
-0.730142
11.627
-5.12182
-15.4782
-7.52449
-2.29638
39.3193
-28.9542
-27.4194
-10.4511
-2.38848
117.463
-175.019
-76.8053
-23.0296
-5.14147
333.07
453.796
452.044
-6.39483
402.913
447.756
448.125
438.344
262.184
417.895
443.95
446.413
452.463
248.931
420.052
444.104
451.24
356.476
166.709
415.121
443.482
445.217
450.259
261.824
394.502
446.93
444.361
413.532
277.467
340.807
449.633
448.201
345.518
-4.95675
79.8738
-171.972
-55.1624
-17.006
-2.29706
15.1956
-6.73982
-18.4673
-7.61174
-2.4196
7.38617
-3.50927
-15.4802
-7.33658
0.164064
5.22689
-4.09357
-8.13584
-1.01385
0.914468
1.4011
-1.94624
-7.64178
2.01821
0.975338
-9.56412
-2.95026
-2.33009
-0.295238
-0.372363
-1.00086
-3.10804
-5.00218
-1.18939
0.556005
4.9965
-3.06413
-10.1946
-4.74561
-1.21807
17.8893
-5.54399
-16.8522
-10.0799
-1.98756
49.0946
-41.2337
-37.3611
-16.7119
-3.18228
97.2712
-156.75
-64.3201
-24.8506
-5.83452
277.451
449.827
-74.816
-25.0702
-6.16079
358.582
450.283
449.818
402.049
367.753
450.677
451.546
412.904
320.925
357.518
450.18
449.033
434.782
280.614
447.691
-20.9642
-6.27224
83.073
-21.2647
-5.45581
38.161
-25.5863
-30.0473
-12.7865
-1.80908
8.4299
-2.50043
-9.92022
-4.4094
-1.25584
3.27696
-2.11283
-5.81019
-1.60357
0.120856
0.849814
-1.95996
-4.34186
0.413397
0.701968
-3.8654
-1.64581
-1.571
0.908855
0.8305
-5.35547
-3.59345
-2.25065
0.330434
0.977337
0.654307
-3.16506
-6.66902
-0.498273
0.257813
7.40165
-4.23651
-11.7712
-3.77024
0.188876
23.1428
0.792995
-28.9393
-8.10612
-0.747657
36.8213
-17.8119
-27.3022
-10.9583
-0.863538
49.5915
-69.9476
-43.7796
-14.3451
-3.48032
62.1537
-147.713
-47.5051
-17.3989
-4.31891
71.2859
-197.617
-20.0479
-5.02431
60.6719
-151.992
-51.6804
-18.0546
-4.84918
47.5799
-63.5786
-40.9545
-14.4283
-3.32715
31.1464
-20.7753
-35.6957
-16.6183
-2.3421
17.5485
-2.74735
-26.9073
-8.64459
0.706945
6.40395
-2.0623
-8.9135
-4.10505
0.1227
0.997007
-1.60076
-4.79389
-0.729437
0.477852
-2.34846
-1.93728
-1.78952
0.415826
0.358613
-2.51622
-3.90321
-4.34397
0.838257
-0.358662
3.8183
-2.96682
-10.4103
0.381249
0.692821
7.89034
-0.912659
-14.8355
3.00208
-0.132636
8.03083
-2.35378
-10.2337
-4.15125
-0.932978
10.3408
-4.2509
-14.3586
-6.58293
-1.79638
24.0604
-9.71629
-19.69
-11.131
-2.17795
27.3665
-21.4252
-16.0863
-2.84117
9.90182
-11.9218
-22.1438
-6.05853
-1.98997
7.03964
-4.00645
-11.6376
-5.41557
-1.45329
8.59828
-4.52095
-13.029
-6.69621
-0.767817
5.77863
-0.707329
-17.2621
-3.92537
0.701167
1.33954
-1.8924
-8.98951
0.970166
1.25203
-3.02547
-3.43404
-2.48696
1.23315
0.52786
-1.93813
-0.224241
1.1752
0.316187
-0.669957
6.35929
1.52286
-0.190647
-2.39686
-3.55189
1.34704
0.842211
2.96513
-1.22917
-5.84894
-1.39361
0.163927
3.863
-2.60328
-8.25296
-3.14955
-0.156774
7.36881
-1.34318
-9.2149
-5.14185
0.355257
10.0598
-7.36723
-7.09105
-0.885385
2.74341
-4.81624
-11.2961
-1.51276
-0.254126
3.49645
-3.08196
-5.77496
-1.98943
-0.396242
-0.375051
-3.38531
-5.80891
-2.26804
-0.309781
-2.62358
-4.84743
-5.60448
-0.119446
0.0488929
-2.00339
1.00744
-13.7994
-2.17426
1.33118
-4.61084
2.8371
1.10768
-8.06489
-1.67925
-0.347977
1.39182
0.952587
-3.66239
-1.92567
-0.559672
-0.274557
-0.280601
-0.935731
-2.0761
-4.08465
-0.235288
0.357986
0.463785
-2.52045
-6.02975
-0.634913
0.311688
2.85177
-8.24183
-1.89225
0.054737
-1.17079
-5.47903
-5.07471
-0.713796
-0.118029
-4.51924
-4.79879
-2.63554
0.170646
-0.139576
-6.139
-4.32822
-1.49151
-0.39564
-0.780654
-8.57765
-3.63812
-1.8728
0.704849
-0.599359
-8.47608
-1.3825
-2.77011
0.0323116
0.0863742
-6.43083
-8.10317
2.49094
0.587168
-9.94566
-4.14487
-3.33528
-0.66982
-0.2526
-0.768125
-1.17365
-2.05567
-2.44652
0.981584
1.39191
0.746158
0.271584
0.353881
-9.45117
0.653014
-2.81281
-7.12856
-8.36636
-2.83002
1.16549
-8.97914
0.0479604
1.70472
0.570937
-1.28787
1.50758
0.293346
0.29419
1.02377
0.427661
-9.27092
11.3204
-4.4944
-0.861791
-4.10834
-5.0258
-4.71067
0.144556
-7.64898
1.56863
1.11452
0.918074
1.17794
0.473758
0.471979
0.154997
-4.78123
-4.0134
-4.09195
-3.76754
0.18635
1.13022
0.883809
0.527126
0.155624
-4.72277
-4.24639
-4.35261
-4.32229
-0.00499866
0.446788
-0.239177
-0.311121
0.23712
-11.9824
-4.95924
-7.23173
-5.03335
-4.16495
-3.69798
-4.03573
-2.13419
-3.56879
-0.127897
-2.16766
-1.29033
0.20777
-0.595193
-0.939601
-0.100105
-0.558957
0.110369
-0.426395
-0.0936688
-6.39628
-4.87681
-4.05757
-4.04123
-4.0785
-2.11389
-3.90074
-3.61221
-1.98026
-0.999612
-3.53833
-1.26821
-0.638858
0.0392345
-0.81806
-0.065837
-0.459672
-0.227698
-0.74019
-0.141072
-10.5817
-2.09186
-3.56521
-3.74904
-2.42068
-3.05248
-1.65125
-2.24922
-3.69683
-3.26674
-3.77349
-4.38997
-1.19087
-2.41792
0.532836
-3.82506
-2.27737
-5.03581
-3.03263
-1.50854
1.4863
0.631098
-0.224092
0.541439
-0.342747
0.580178
0.0978527
0.0360793
-0.0465582
0.139157
-0.0979998
0.105678
-1.78653
-5.20096
0.562869
-1.93341
-2.46908
-0.442292
0.479273
-3.14726
-4.28651
-8.74794
-3.81654
-4.86642
-8.35002
-12.0007
0.744904
-8.93821
-1.13774
-4.02145
-1.40479
-11.9762
-3.72059
0.77882
2.44949
1.49466
1.58927
1.04121
0.733255
1.75159
-0.0469782
1.25421
0.397521
0.0740629
-0.0245527
1.52048
0.50019
5.91823
-10.1109
-4.98685
0.505865
9.71827
-1.61282
-2.74598
-4.71455
-5.31527
2.53687
-5.48804
-9.0144
-4.52789
-0.0739112
-5.30502
-6.88883
-1.0823
1.64941
1.71343
1.187
-8.49326
0.269919
0.450845
1.57343
0.329355
0.749576
-0.0153122
0.556121
0.281924
-0.0857652
-0.200753
-5.04541
-4.97685
-2.64167
-4.10585
-3.69515
-4.8224
-4.27861
-3.82306
-0.987647
-5.90293
-7.24532
-5.50365
-5.74722
-0.522826
-1.00793
-0.0314651
-5.80107
-2.91042
-4.34303
-1.37609
0.642452
0.51274
-0.30193
0.407934
1.64433
0.572205
1.21165
0.023892
-0.381951
-0.0729768
0.267833
0.148116
-0.20011
0.0356479
-3.62083
-4.54188
-5.49826
-5.25247
-0.565332
-4.49486
-3.22184
-4.78844
-1.67181
0.128277
-1.83257
-0.0743025
-1.05722
0.0555244
-0.101606
0.978892
1.05808
0.0617748
0.400706
-0.0873576
-0.297753
-0.257965
-0.289718
-0.258646
-6.13363
-5.09439
-8.86687
-4.38911
-4.13756
-1.16989
-3.20454
-0.0859597
-0.671493
0.080343
-0.187221
0.693364
-0.0433686
0.497853
0.810562
0.863304
-0.0812605
-0.115845
0.0659728
0.217544
-9.5972
-3.99578
-2.64578
-0.67063
-0.772755
0.553312
0.811807
0.82089
0.315281
0.132976
-5.30424
13.9529
4.56854
3.0703
2.46813
0.512151
-10.3234
-4.81571
-3.68541
-1.25756
-3.72214
-3.98061
-4.27583
-4.38103
-9.87323
-6.17582
-8.54467
-4.31113
-0.809699
-4.49472
-6.72848
-3.43844
0.356957
-0.0319582
5.77691
2.44925
0.430948
0.998334
0.0880611
0.0366271
2.06121
0.321977
0.821079
0.361128
-5.23765
-4.82257
-4.30632
-3.1952
-3.28919
-1.84812
-2.69799
-3.7496
-4.1623
-3.7103
-5.11728
-6.95407
-4.29575
-6.02089
-1.10615
-3.19718
-1.7077
-6.16222
-3.31904
-6.10155
-3.7639
-0.48045
-0.176889
0.271172
0.0197954
0.723184
-1.1077
0.509282
-0.0814813
0.0562673
0.06164
0.271894
0.343948
0.0116009
0.341614
-5.93177
-8.56417
-13.1355
-2.20365
-7.72797
-2.58054
-19.8333
-3.6542
-13.1135
-4.52414
-8.57518
-6.29
-19.7241
-10.53
-5.10137
-10.5584
0.807506
-3.12135
-14.6686
-6.32323
-8.4086
-2.13594
-13.2086
-14.1361
-6.36807
-3.32423
-6.25417
-4.85516
1.31274
-0.504676
-0.579709
-1.20528
-4.55007
-1.48033
-2.01628
-0.97639
-0.463382
-1.18242
-4.23761
-5.96322
-2.94183
-10.7562
0.288677
-4.67325
-1.55555
-9.41512
-1.61867
1.25241
1.28998
1.89184
3.01668
2.51654
0.101644
1.36944
0.381242
1.9346
0.188991
-1.33159
2.25258
-0.547225
-12.7037
-0.44444
-4.78767
-11.9407
-1.13217
-5.17794
2.30079
0.779503
3.20729
3.74395
2.47102
1.94953
0.380139
1.73196
0.373962
-7.25871
-5.18238
-3.93547
-2.13929
-1.60598
0.281917
0.769706
0.88612
-0.198755
0.124581
-3.43055
0.729072
-5.54695
-4.33604
-1.85226
-2.92288
24.4592
-4.12686
-3.68784
-5.55675
-8.38979
-17.5404
-2.19923
-0.271004
-7.17285
-0.704551
7.64508
2.48375
1.48492
1.76471
2.08893
2.21397
1.83455
0.444725
0.310488
0.18003
0.635025
0.15767
-4.97121
-10.9658
-4.20433
-11.1349
-2.17434
-21.8208
-9.34503
-3.05894
-9.69477
-1.04421
-18.8553
-8.07073
-10.0813
-2.5296
-21.2919
-8.28017
-18.3251
-6.87095
-37.6599
-9.60038
-21.0151
-12.5093
-18.2465
-15.4067
-33.0298
-23.086
-3.2623
-16.9224
8.26835
-5.91515
-26.5659
-14.6897
-16.3739
-9.49983
-23.7163
-25.4134
-17.0461
-9.89204
-2.19176
-12.3316
0.50256
-18.1332
2.86864
-12.2354
-2.79842
-11.5682
-0.86401
-17.5406
-8.52744
-10.9295
-2.58861
4.5773
-7.01755
-0.691616
2.95581
3.40599
-0.00179333
-0.568755
-1.11459
-4.6933
-0.0267701
-8.82638
-2.28526
-3.91455
-1.35721
-4.88147
1.59696
-8.44912
-2.27648
-3.07727
-0.578346
3.13955
4.16325
2.41549
1.15119
2.50969
2.00522
2.14533
0.735221
1.38313
0.276364
1.49693
0.601796
1.14015
0.584825
-0.970705
-1.55691
-1.67199
-2.02315
-4.24322
-1.65864
-2.2149
-1.14735
0.695355
2.56416
-2.17311
0.49429
0.584433
0.84586
2.00879
1.38614
1.95028
0.921961
0.206412
0.232978
0.980453
0.150378
-0.116612
0.179786
-8.04769
-4.84315
-3.65787
-1.15639
-1.26124
-0.64377
0.111723
-0.635862
-0.863697
0.00946756
-5.72609
-4.70187
-6.15285
-4.72116
-2.98392
-3.0526
-3.42547
-2.7205
-4.04401
-1.62798
-3.38247
-3.83365
-2.0639
-0.810161
-1.48587
-0.345908
-3.86424
-2.10224
0.432956
0.963691
0.188361
0.328993
-0.0553874
0.921293
-0.0130612
0.0686542
-0.700168
-0.250071
0.534568
0.522856
-11.1326
-4.76135
-24.3531
-4.60864
-10.7992
-1.0206
-23.0156
-3.06912
-20.0244
-11.7377
-10.6629
-6.86869
-22.2603
-12.1685
-21.8864
-8.13004
-19.6116
1.7644
-28.0036
-8.7116
-39.0032
-9.39661
-18.6362
-12.5544
-26.3573
-12.0296
-39.0684
-20.8813
-35.6004
-7.15719
-42.4265
-102.271
-87.2311
-135.208
-72.2049
-21.7939
-37.2446
-24.6021
-47.312
-29.0817
-61.5977
-26.1425
-15.5874
-35.3237
-109.94
-133.237
-88.6354
-24.9955
-32.7686
-22.6448
-26.7665
-63.5691
-29.3114
-18.9893
0.115551
-20.9489
-8.54474
-42.1485
38.1044
-16.2052
-20.6659
-11.8492
-39.8086
-24.0871
-23.7521
-20.9667
1.86113
-12.6858
11.1764
-34.9612
2.05526
-12.5791
-9.6822
-12.4285
-5.37243
-31.9175
-20.2521
-13.8689
-8.22824
-0.173995
-7.67257
-2.05973
2.6554
1.37805
-0.025378
-0.017238
-2.0717
-0.998103
0.973718
-0.204842
-2.58249
-0.235894
-0.830934
-1.04829
0.682049
0.76307
-4.47888
-3.05913
-1.94263
-1.13959
1.88032
1.05312
-0.196136
-1.07956
0.640856
0.302614
1.01527
0.60952
-0.380937
0.107731
0.316221
0.827659
0.48868
0.575757
-1.53413
-1.65619
-0.950229
0.779051
-0.639166
-0.671793
1.03443
-1.06009
0.0650717
-0.160232
0.102437
0.560978
0.290486
0.00178539
0.195943
-3.56707
-3.17417
-3.15264
-1.66971
-1.27335
0.0762848
-0.0592406
0.610819
-6.43601
-4.55209
-9.99414
-4.27377
-2.45974
-3.64806
-3.88635
-1.80835
-3.45674
-2.93928
-4.01798
-4.06479
-1.73301
-0.463208
-3.10821
-1.85271
-3.95777
-2.48376
0.0559209
-0.163032
-1.6668
-0.198566
-0.489248
0.398723
-1.24399
-0.100064
-0.196446
0.235149
0.264415
0.037529
-33.5031
-13.8777
-47.2036
-42.5629
-45.491
-145.489
-83.3911
-15.2519
-44.69
-28.9389
-38.1068
-21.4755
-69.0672
-26.726
-51.6512
-127.309
-93.3949
-45.7565
-203.973
-99.7375
-28.2788
-53.3301
-31.2848
-28.4706
-73.9128
-29.1835
-118.814
-177.254
-110.093
-92.067
449.02
451.357
-36.241
-81.1411
-29.4215
-79.7326
-28.2355
450.432
-8.59339
-19.709
-9.25004
-20.0908
-6.90633
-7.13004
-1.22173
-4.39605
-1.04113
-4.73039
-0.883125
-5.50363
-0.488617
-207.318
132.911
-267.191
342.789
445.493
355.85
440.534
-107.309
-231.572
-74.7341
451.281
451.55
447.485
450.375
-28.7306
-62.8417
-25.175
450.551
398.396
449.364
379.247
-11.2385
-20.2618
-11.4459
431.156
-7.80552
460.094
-1.74149
-7.5729
-2.19965
-6.56937
-0.426485
-0.803653
-192.476
110.056
-239.648
356.106
441.066
345.301
440.319
-225.803
-101.371
447.569
449.705
447.447
449.765
-25.4766
-71.1463
-30.3255
448.994
417.375
449.209
367.352
-11.1289
-24.9456
-12.0946
442.923
417.356
-9.10948
-2.46805
-6.23159
-1.86127
-1.45546
-7.60249
-0.381103
-112.738
-164.024
-117.023
447.971
449.806
441.393
-32.5324
-84.9084
-38.2252
449.162
396.968
-28.1727
-11.1271
-20.9808
-10.7751
430.382
-8.80091
-24.2312
-8.91309
-1.26782
-4.60761
-0.954738
-6.69513
-0.403535
-5.80908
-0.288574
-118.116
-93.7988
-100.6
-105.416
-184.273
-122.832
-36.1378
-60.9739
-34.8787
-86.0575
-30.9838
-102.796
-31.6122
21.4842
41.1473
29.5974
92.2597
-48.6224
61.7188
8.56476
-62.1895
12.769
-44.7576
-40.5859
-70.893
-29.9743
-39.836
-25.6063
-60.5875
-36.0633
-11.7823
-21.1419
-10.2158
-31.5494
-15.5785
-27.9416
-12.1423
-32.3313
0.483705
-14.0121
-15.2957
-38.924
-2.19092
-21.4561
-21.4707
-17.6186
-15.2136
-37.7153
-30.2157
-21.2955
-18.5885
-0.327612
2.07686
0.971432
-1.6214
-1.13214
-0.373608
-0.223874
-1.98359
-0.916322
-0.439751
-1.09038
-3.31465
-2.12622
-0.962306
0.236054
0.432671
-0.0818336
1.16864
0.528131
0.801772
0.204329
0.955676
0.736024
0.28307
0.110275
-2.94858
-1.13813
-0.598913
-0.43161
-0.657922
-0.37988
0.562208
1.41181
0.786993
0.019905
-10.5981
-4.88907
-2.7103
-1.6268
-4.14381
-3.41838
-4.88278
-9.63335
-3.40623
-1.37654
-8.63382
-1.99085
-1.10726
0.229753
1.94407
1.44612
-0.798034
0.381651
0.962861
0.219159
-4.58777
-1.26905
-2.27589
-1.23388
-2.5001
1.32758
-0.824699
-3.64123
-4.48364
-6.17685
-5.94924
-8.88261
-5.28145
-9.13334
-2.00824
-6.08227
-4.12068
-6.92457
-3.75179
-8.07875
-5.08844
-0.165419
-1.58857
0.244493
0.0614132
0.872944
-1.52787
-0.221443
-0.0461218
0.145859
0.34682
0.763525
0.372205
-0.152675
0.411353
-83.2226
-224.434
-92.5656
-200.017
-104.981
451.571
-27.9947
-68.8609
-27.678
-59.6817
-32.0921
-22.214
-87.5849
-89.4077
451.961
453.252
448.43
451.515
-26.2535
-76.5035
-25.1944
452.646
-19.9692
448.693
384.489
-6.98699
-21.1767
-6.89804
-16.49
-5.28595
431.493
307.572
-0.883115
-5.0785
-0.325048
-3.70387
-0.152888
301.654
449.839
451.076
449.066
450.82
446.495
448.811
-24.807
449.758
474.351
447.265
413.686
446.565
423.249
-6.17265
438.039
412.787
302.706
425.994
331.839
-0.325055
-5.12396
-0.116369
304.05
4.05403
261.821
1.58142
451.181
447.194
448.561
443.743
447.687
442.13
446.092
414.151
449.322
360.974
446.308
422.051
446.132
449.792
465.73
353.017
450.411
298.595
452.54
244.682
-0.118418
330.931
-0.231652
240.453
1.31936
301.76
7.94374
448.332
446.916
449.094
441.731
445.859
441.007
444.964
418.741
448.441
403.828
446.047
442.956
443.824
484.001
321.877
424.655
324.306
431.56
298.128
379.699
293.592
-0.493712
0.0185547
293.158
291.997
1.36738
449.416
442.767
448.623
442.089
445.335
443.448
446.014
387.673
448.263
-26.0982
443.798
426.443
444.153
390.297
-22.2746
-7.88084
358.492
216.735
419.842
268.688
-0.101916
-6.73955
-0.251319
232.36
2.57096
298.428
-5.05135
449.182
-173.89
440.319
446.212
446.208
447.503
-27.0429
-30.666
445.772
559.529
446.374
423.257
-7.96601
-28.8711
-10.2337
415.426
307.851
405.362
-6.39296
-0.178995
-7.49259
-1.03252
293.784
-5.32354
-5.21019
0.152936
-187.664
-130.534
443.433
447.385
-142.453
-130.515
-72.0169
-41.5855
446.651
422.646
-95.0694
-41.7216
-13.171
-22.1933
-12.1249
-6.2794
-27.3389
-14.3645
-0.823883
2.17292
1.02759
-0.960214
-1.40945
-6.5298
-0.582683
-5.9883
-1.44662
1.86499
1.22593
1.95569
0.232135
1.01499
0.207563
-0.780136
-0.662217
1.0614
0.87017
-4.17703
-11.9924
-0.905589
-8.43893
-10.7772
0.390687
-7.89509
-4.02556
4.56606
1.94411
-0.460654
1.47379
1.39901
0.420668
1.11872
0.269726
0.724966
4.13046
0.759161
3.94917
2.45622
7.05752
6.59537
-12.5403
-3.82476
-14.2979
-0.905579
-8.66485
-0.643015
-15.8842
-1.01336
-12.7341
-4.72591
-8.23835
-4.63968
-16.2282
-3.91784
2.0513
-2.68712
1.41286
-1.77434
1.3353
-0.666143
0.0823484
-14.4289
-5.72935
-17.7823
-2.66692
-16.9223
-7.06095
-6.27652
-17.6483
-13.1608
-17.4789
-4.39975
-21.9673
-20.6841
-18.8925
-29.4419
-6.6402
-37.1869
-33.2007
-59.1901
-16.5166
-25.2331
-18.8102
-33.7065
-22.4547
-50.758
-26.9834
-54.9796
-179.15
-102.506
-64.3912
-70.4837
-203.392
-100.41
-24.2986
-55.3714
-30.5519
-57.642
-32.6385
-68.0615
-27.6042
-106.339
451.902
453.661
-88.7324
449.84
452.537
-28.6782
452.959
-20.9444
-71.8312
-23.9898
451.182
470.305
-6.13272
-17.5669
-5.97702
-19.7829
-8.90556
415.316
289.589
-0.687621
-4.4267
-0.101686
-6.24681
-0.453193
296.329
-3.7142
449.455
426.727
450.466
376.954
450.876
393.096
-5.50221
440.034
303.924
361.052
265.241
378.753
169.116
0.0405831
292.51
293.331
-5.31712
288.341
-1.14795
432.747
446.781
365.702
451.155
428.907
447.293
457.992
297.069
424.204
289.215
424.163
275.337
445.984
229.061
-0.832426
323.578
-0.0574565
293.87
-0.64382
232.407
-61.9907
418.944
445.965
447.839
445.703
555.806
445.342
630.053
309.613
451.843
229.172
426.572
235.384
446.103
299.534
-0.213063
293.566
8.61269
123.276
292.236
-30.4244
438.18
443.745
425.087
446.238
477.185
445.44
443.933
272.349
374.756
299.909
438.731
25.8162
445.263
206.191
263.459
-0.392996
215.224
-30.6026
387.086
444.759
451.351
444.883
450.74
444.538
429.193
271.604
429.051
285.177
461.702
240.485
381.929
248.288
4.27171
320.025
-0.779368
188.993
277.655
-1.09346
420.93
446.233
421.467
443.821
208.531
441.975
419.495
279.384
431.743
410.722
170.938
439.854
275.154
-7.47265
0.246143
261.91
2.60858
245.261
3.71675
447.936
-111.802
-129.43
444.421
443.364
441.163
446.998
435.524
-98.3866
-38.5642
442.516
419.858
445.623
-5.8809
-26.6247
-8.22024
441.704
275.379
-22.4853
-7.08372
0.168925
-4.99058
0.420089
297.175
0.855195
-5.46642
-0.2478
-140.992
-131.436
-122.825
439.794
-155.297
-115.739
-40.0869
-66.9329
-38.3109
-27.9195
-73.5769
-37.4626
-11.6504
-19.7254
-10.5341
-23.1514
-8.14506
-19.7425
-11.228
-46.5613
-2.76957
-26.0057
-84.1273
-83.3207
3.76702
-44.905
-29.2836
-27.5925
-23.6762
-65.046
-29.9109
-40.6825
-28.3997
-19.106
-0.209796
-14.6929
8.93929
-42.1069
6.51957
-17.4305
-14.8141
-8.19699
-38.6849
-24.3066
-15.5669
-13.5485
1.58878
-10.8316
2.41935
-24.2488
4.6368
-10.8377
-6.55706
-9.99295
-2.26093
-22.0053
-12.4022
-11.8623
-5.74139
3.23383
4.66756
5.0104
-3.02317
2.56719
-9.82008
3.13582
-8.03412
2.25657
-4.03076
-1.63783
-8.35883
-4.31529
-5.21387
-2.03867
1.78117
-2.03764
1.81392
0.451989
0.302443
0.651404
1.57278
0.833479
-0.100851
0.123034
2.27418
2.04783
-3.14663
-4.20902
-1.04877
0.173832
-0.177563
-0.170332
0.168963
0.831771
-0.163532
-0.675258
0.105829
0.0135745
-2.45738
-4.4466
-0.270816
-1.30827
-1.31798
-3.19155
-4.33926
-2.89291
-1.70838
-1.9757
-4.43168
-3.21029
-0.909402
-0.221048
-1.2441
-0.930689
-1.45226
-0.500913
0.49159
0.361735
-0.876107
0.499276
0.0222149
0.486707
-8.57905
-0.356038
-11.6281
-1.06805
-4.43274
-1.03633
-6.30524
-4.32939
-11.8445
-6.05113
-6.28305
-5.19933
-8.29166
-6.9594
-14.5569
-0.163597
-8.52563
-2.69463
-15.0402
-7.23384
-12.2728
-10.1117
-16.7123
-13.3403
-38.3231
-61.5303
-9.60248
-25.1668
-75.5878
-67.3095
-56.2952
-23.868
-24.0311
-16.9951
-53.0048
-25.1244
-38.7678
233.72
-219.248
99.9876
-106.837
315.457
448.612
-65.7435
-216.96
-86.5036
-143.758
-84.0074
451.91
452.463
-26.3095
-70.9633
-24.063
-61.6289
-29.3293
451.616
-10.0724
-18.0487
-7.98494
-21.8011
-10.7487
-7.15261
-1.55361
-5.78693
-0.969197
-4.83269
-1.57696
-4.92879
-0.264173
-83.3041
451.482
451.325
451.959
452.542
449.138
451.072
-22.42
450.373
410.707
451.124
433.728
448.494
428.851
-8.02518
414.233
286.964
444.885
-6.41102
434.614
216.119
-0.323958
286.869
9.32078
-4.86179
-0.0879385
262.035
-2.0135
565.977
449.685
434.972
448.968
366.671
448.759
375.589
262.53
418.535
265.817
424.503
272.657
450.962
165.893
2.56604
320.276
297.781
-1.35625
278.542
-81.4292
383.174
450.368
421.032
449.106
452.662
441.707
501.124
222.093
447.587
252.482
447.508
209.622
412.46
173.885
-0.16081
367.876
-23.1565
243.282
349.686
593.609
444.315
602.668
435.255
438.549
427.298
385.041
213.108
443.34
223.773
349.592
175.863
348.99
262.701
-23.511
243.69
-31.698
243.574
250.025
412.971
435.568
430.527
434.168
432.846
437.071
431.787
434.597
443.616
438.936
444.013
438.421
431.705
438.075
432.194
486.004
444.498
501.987
426.786
382.273
426.928
363.25
189.143
456.177
76.816
351.548
263.518
287.57
263.867
187.105
249.116
378.663
263.653
591.041
460.984
446.515
217.835
434.317
393.992
442.117
452.447
224.841
404.208
215.778
276.695
206.205
450.026
260.546
442.719
0.963294
239.926
556.346
281.948
398.854
441.154
421.78
442.201
582.086
440.874
405.931
223.765
435.772
309.428
445.827
253.133
428.421
189.377
-19.7614
266.713
-1.60644
336.805
225.38
2.52963
443.338
444.411
446.893
439.077
441.8
444.869
445.32
448.102
445.587
440.391
449.999
444.339
364.534
286.329
-6.51677
429.979
223.628
347.072
281.894
1.0736
-5.18139
-0.131309
251.72
-9.44431
278.489
-0.1226
428.24
160.355
-89.3754
335.278
433.5
174.207
-180.936
446.969
-201.397
-113.116
446.486
447.032
-224.367
-109.61
-24.0722
-75.143
-30.7574
445.335
339.321
-77.0513
-30.7014
-7.23827
-23.0975
-10.4047
396.121
290.998
-23.0499
-8.93289
-0.460478
-5.5005
-1.50321
-0.325016
-5.51258
-1.65239
-86.0966
22.9708
-187.671
-117.652
-8.2441
-43.2183
-31.092
-27.3674
-78.4392
-32.7757
-39.52
-24.78
5.72779
-23.1824
-1.55907
-30.5335
-0.463119
-13.8715
-21.6329
-14.353
-29.0045
-21.4953
-17.0867
-13.6177
-15.6012
1.14721
-8.49723
0.512348
-7.58113
0.769425
-4.50358
-10.9813
-8.87513
-5.52376
-10.8866
-9.17232
-6.89866
-5.84191
2.78559
-2.84259
1.16538
4.25718
2.86187
-0.542371
0.522059
-4.75998
0.842015
-2.34516
0.22432
-2.69779
0.640904
0.735571
-3.40087
-3.3808
-2.03321
-4.25421
-3.27395
-0.2595
-1.59655
-0.607114
-0.678783
-0.13545
-1.63968
-0.452002
-0.993422
-0.0993111
0.430282
-0.146542
-0.0847739
-0.161009
0.396617
-0.204656
-0.30042
1.08551
-3.36128
0.982734
-2.2753
1.50991
0.718164
-1.20688
-0.216205
-0.900588
-0.272122
-0.456602
-0.203888
0.0115636
-0.456499
-0.0633604
-0.688684
-2.37168
-1.08588
-0.720766
-0.738578
-1.00498
0.489201
-0.391562
0.911769
0.495889
-7.33101
0.862628
1.217
0.742157
-0.934076
-0.518658
-2.32226
1.11031
-0.745472
-0.124074
-1.97308
-2.1487
-4.72556
-3.92834
-2.62368
-1.74195
-4.72518
-4.27494
-1.04614
-1.81705
-0.760513
-1.17852
-0.788318
-2.2721
-0.973872
0.497643