/*--------------------------------*- C++ -*----------------------------------*\
| =========                 |                                                 |
| \\      /  F ield         | OpenFOAM: The Open Source CFD Toolbox           |
|  \\    /   O peration     | Version:  4.0                                   |
|   \\  /    A nd           | Web:      www.OpenFOAM.org                      |
|    \\/     M anipulation  |                                                 |
\*---------------------------------------------------------------------------*/
FoamFile
{
    version     2.0;
    format      ascii;
    class       volScalarField;
    location    "95";
    object      p;
}
// * * * * * * * * * * * * * * * * * * * * * * * * * * * * * * * * * * * * * //

dimensions      [0 2 -2 0 0 0 0];

internalField   nonuniform List<scalar> 
146404
(
-7.99133
-3.84632
-10.1965
-6.18803
-12.5968
-8.02006
-4.01001
-2.21713
-6.88017
-21.9344
-2.3832
-6.59326
-3.33932
-10.5957
-6.5057
-3.50494
-6.98718
-6.19256
-4.13771
-9.5773
-7.69101
-11.4384
-8.68845
-4.3612
-5.14278
-7.37957
-11.8265
-10.6893
-4.89441
-0.869205
-7.42917
-18.8688
-14.5107
-4.73039
-0.031309
-6.59788
-15.9569
-11.6799
-4.67127
5.28562
-1.03503
-21.4151
-4.30965
4.26867
-5.09391
-15.5513
-11.7543
-4.97195
2.69662
-3.34674
-10.1947
-9.65106
-4.95917
1.68037
-1.87087
-8.23359
-7.97115
-4.10561
-0.114253
-1.06742
-7.03789
-5.71924
-3.24664
-3.58846
-8.74813
-3.20509
-2.14455
-8.11061
-17.8553
-12.4696
-5.80924
3.4314
-8.19389
-25.4636
-20.363
-8.06492
6.67301
-11.511
-33.4877
-27.39
-9.20839
9.03809
-7.1409
-26.3061
-21.4269
-10.635
16.125
-6.14366
-37.5024
-10.3858
13.5817
-7.44346
-27.2803
-25.5194
-11.7305
17.2597
-5.20827
-26.4167
-24.0405
-12.1301
11.3286
-0.677263
-16.1013
-16.0707
-7.71507
9.55105
-2.70891
-12.859
-7.74778
-4.58382
11.5964
-10.2399
-7.91892
-1.47872
9.53567
-2.22345
-1.73842
-1.26243
-9.04455
-11.9891
-15.9609
-10.557
-4.1152
-2.07712
-11.3664
-23.8955
-12.7955
-5.6283
7.43909
-0.922577
-29.9053
-13.2069
-10.4262
14.641
-11.4861
-36.5939
-33.2001
-12.6747
25.9736
-30.0824
-58.1519
-63.233
-13.6088
39.3966
-30.7148
-74.115
-54.2343
-13.4623
50.9647
6.00513
-100.29
-13.8546
40.3309
-22.6048
-75.9548
-58.5278
-18.1424
31.996
-17.7083
-58.0396
-58.0128
-21.9332
28.7652
-2.08372
-34.5468
-38.1098
-16.2215
24.6528
3.93357
-27.5703
-11.8095
-9.00862
17.8813
10.1091
-8.70884
-8.54842
-4.98154
12.2229
8.82202
-0.520378
-3.37623
-2.60236
9.61507
3.27106
-0.419557
-1.67704
-10.9249
-11.9857
-14.3975
-10.5672
-4.48221
-4.553
-13.4492
-25.6362
-15.6241
-5.24118
1.49364
-15.2571
-33.5719
-24.8659
-8.71869
24.7942
-14.0233
-57.1537
-28.2421
-12.1805
60.0245
-19.9094
-98.3355
-115.262
-21.0695
105.817
-75.9033
-161.001
-149.769
-32.049
120.591
-91.0323
-157.615
-155.212
-36.7194
152.427
-64.2688
-139.59
-29.7949
121.091
-102.572
-157.711
-156.234
-45.4061
98.9572
-73.1792
-138.351
-178.106
-57.4472
68.4413
-1.67979
-91.399
-151.205
-42.7019
46.0889
25.2839
-41.7775
-60.1508
-23.4965
27.7904
11.303
-16.2479
-21.6006
-11.2745
19.0978
9.65149
-3.91273
-8.23762
-4.39035
12.464
10.5724
2.03134
-3.27709
-2.64405
-13.6168
-11.9518
-14.7729
-9.11021
-4.11855
-5.81021
-14.2995
-19.3886
-14.8284
-5.28533
-0.990263
-15.5905
-38.3873
-24.8752
-8.0187
12.3992
-30.1456
-87.7534
-48.5788
-12.7089
58.9482
-115.129
-173.904
-130.158
-16.907
144.26
-97.4095
-155.25
-172.395
-27.5555
313.321
436.676
-133.847
-21.5189
383.898
434.931
436.242
411.249
387.177
431.976
435.685
429.592
305.644
373.33
431.373
435.122
423.011
307.026
430.565
-150.576
-46.1482
185.834
-111.489
-74.0301
83.4881
-11.6089
-69.5359
-132.908
-48.3023
39.3333
8.8599
-42.2497
-59.6187
-22.7041
26.1126
16.7072
-11.2612
-19.8263
-8.47458
18.485
10.109
-1.86583
-5.82103
-4.56968
10.7972
9.94925
1.10048
-0.918407
-1.68837
-5.04146
-11.1125
-21.5692
-7.47426
-3.09738
-2.10182
-14.1728
-25.9669
-15.0807
-5.27112
6.01276
-18.9181
-44.085
-29.3431
-8.9366
37.0792
-74.3907
-124.67
-66.0704
-14.2312
123.829
-153.321
-209.446
-135.822
-18.2618
374.823
438.115
438.995
-14.9845
413.798
431.467
435.133
406.318
304.289
415.113
427.98
432.587
438.494
331.454
413.885
426.56
432.79
425.679
283.856
410.307
426.37
431.216
417.144
332.187
392.349
426.865
432.042
399.949
294.61
351.199
432.832
433.617
424.535
-57.7107
185.72
-22.2881
-65.9443
-136.718
-82.0922
66.9775
3.71638
-69.4661
-121.412
-41.6441
37.7732
18.0339
-22.0971
-29.8615
-14.7258
23.4517
14.411
-9.03801
-10.0469
-5.3265
16.4665
11.926
-6.06581
0.0293549
-2.00782
-3.58554
-8.53519
-17.958
-10.4793
-4.78113
4.06426
-3.32002
-27.7459
-13.9459
-7.20819
24.9934
-38.6688
-10.8966
83.3495
-81.856
-169.261
-119.294
-14.0921
303.894
-208.886
-121.506
-8.55665
414.648
432.305
437.043
392.235
274.649
417.985
428.656
436.173
379.19
266.194
416.104
424.999
435.006
432.044
331.628
414.283
422.329
431.012
432.521
212.695
413.989
423.555
432.913
455.39
316.734
410.115
424.642
432.504
352.135
297.13
389.097
427.552
428.552
430.438
312.475
309.507
430.307
433.303
-118.528
-72.5073
107.237
5.6387
-62.52
-122.072
-50.2661
49.7417
93.0054
-181.726
-19.9809
26.0548
16.7628
-17.9363
-12.7159
-6.42766
15.2398
7.58332
-6.07767
-4.9984
-3.88027
8.83338
-1.96779
-1.97931
-1.8434
-7.15217
-10.6005
-8.48136
-4.70922
-1.25313
-7.6979
-19.6382
-13.4948
-4.69204
6.05986
-11.8981
-38.6042
-26.1126
-8.26021
30.0737
-29.9923
-72.9815
-52.5835
-12.4411
99.567
-69.782
-181.253
-121.883
-25.8962
381.86
437.59
438.451
438.963
0.356628
417.912
431.05
435.755
388.342
260.782
417.805
426.7
434.521
458.868
165.033
415.345
421.682
425.98
290.089
231.68
408.95
417.85
415.538
338.758
259.47
411.521
419.271
421.242
289.974
225.372
412.81
423.064
431.437
440.339
177.903
400.754
424.208
428.909
412.847
257.3
352.194
431.694
434.198
385.196
311.41
140.243
-29.7146
-76.0749
-151.725
-78.3877
39.5688
12.9658
-44.7778
-58.2807
-21.1378
23.0031
7.55764
-12.776
-18.617
-8.73754
15.5398
9.14245
-2.95338
-9.19337
-5.32932
7.58644
8.5074
0.973336
-2.74187
-2.9256
-13.5623
-6.82287
-10.337
-8.56838
-4.60511
-0.808883
-7.24763
-19.2487
-13.7839
-4.90387
7.01275
-12.0015
-38.652
-27.4154
-8.91571
32.3334
-31.62
-77.4166
-58.0156
-12.1989
118.188
-70.8503
-181.593
-126.787
-28.9994
386.507
438.629
438.162
422.242
418.544
431.749
436.649
442.202
331.776
418.568
426.961
443.179
450.985
204.486
413.268
421.35
419.976
331.929
278.359
409.301
416.952
406.28
339.393
268.287
407.237
419.278
414.145
334.528
263.914
413.816
423.458
429.502
455.812
212.54
403.513
424.806
429.904
442.402
261.021
356.423
431.08
432.671
416.13
314.842
148.194
-38.4139
-95.9177
-152.88
-61.6546
34.735
2.13973
-44.5795
-52.7642
-19.5365
22.6627
7.60734
-14.8959
-19.363
-8.88687
14.7968
8.86974
-3.46264
-9.96515
-5.40312
7.01869
8.03002
0.478427
-3.54438
-3.41678
-6.65209
-10.1115
-7.89514
-4.65225
-2.56143
-6.49593
-15.3977
-11.914
-4.55918
6.73454
-6.22916
-27.0082
-23.2907
-9.19306
35.0108
-13.2638
-68.2219
-65.7114
-12.4292
127.069
-57.9426
-140.508
-156.676
-36.3414
376.431
437.746
438.735
414.367
-20.7012
416.664
432.563
436.479
428.021
279.357
419.75
429.276
439.412
439.31
212.435
417.705
424.007
428.375
322.22
232.718
414.659
420.913
420.118
331.131
270.26
415.843
422.017
425.518
327.859
260.685
413.168
426.095
434.485
442.595
144.508
399.847
427.806
431.151
352.561
265.089
338.912
434.971
434.841
423.297
317.596
112.218
-56.0418
-96.8619
-153.483
-32.1517
41.828
12.3336
-46.6801
-67.3184
-15.7306
22.1318
11.0401
-13.398
-18.9516
-6.07266
12.0414
7.20406
-4.66237
-7.77073
-4.80662
5.58084
7.26576
0.133419
-3.53513
-3.12524
-0.435033
-6.76272
-16.8687
-8.1909
-3.84719
8.3191
-4.30257
-26.9259
-7.87192
-7.60984
27.8435
-20.202
-12.5812
76.9577
-44.2455
-130.69
-164.381
-28.1597
289.925
-136.487
-150.766
-30.8959
398.52
434.265
437.243
438.384
292.735
416.675
430.99
436.579
434.686
228.899
418.888
429.359
434.373
453.946
323.717
418.686
432.658
441.935
442.727
228.582
415.115
427.903
434.784
431.319
261.686
408.713
427.921
432.29
374.395
260.868
385.458
432.496
432.029
374.087
300.611
291.884
433.389
435.283
-168.824
-42.0249
67.4054
-43.9353
-122.142
-189.851
-17.8562
28.2239
-4.78471
-89.3375
-10.5155
15.512
19.3474
-22.011
-17.9962
-5.39673
9.25913
10.5305
-9.14516
-8.61623
-3.95605
6.45588
-3.51986
-4.23296
-2.74448
-3.48345
-8.08745
-18.2769
-8.0377
-3.57125
1.39175
-8.63483
-18.9851
-14.0508
-6.19717
10.6285
-11.2904
-35.5545
-32.2632
-10.546
38.1652
-33.2353
-85.1724
-79.4967
-19.3383
132.501
-67.0303
-145.388
-156.825
-37.2459
335.209
439.7
440.429
-40.64
393.915
434.772
436.57
430.644
264.611
405.973
430.718
434.941
447.598
252.461
407.976
430.242
439.14
359.692
166.737
402.966
429.924
433.714
442.212
263.298
385.201
433.715
432.444
404.241
290.211
338.512
435.383
435.848
341.247
-7.33465
94.1573
-110.611
-176.096
-160.919
-20.961
13.0875
-17.6483
-48.4057
-41.2522
-14.5929
5.5542
-6.88758
-32.3192
-27.3748
-7.12403
4.15482
-8.52547
-18.8681
-12.1832
-5.41463
2.16633
-6.37419
-18.041
-5.90226
-2.76259
-11.4396
-7.38707
-11.1929
-7.86666
-4.18987
-3.32287
-7.70481
-12.9232
-10.9211
-5.23052
3.2617
-6.91234
-22.9774
-18.0096
-7.19139
18.287
-9.4618
-38.3499
-43.5076
-14.2906
53.2019
-31.2469
-108.717
-135.755
-21.9252
122.521
-49.7645
-96.0194
-162.887
-53.8999
283.146
436.409
-112.737
-151.135
-35.6841
352.731
436.054
438.5
393.574
361.859
436.31
439.157
402.604
318.258
351.083
435.816
437.417
423.038
282.203
436.711
-158.9
-23.9693
97.001
-182.786
-14.7015
35.5701
-33.8495
-90.9964
-81.0954
-13.608
4.86555
-8.73592
-28.2779
-22.3967
-7.56143
-0.623573
-8.37226
-17.4223
-12.719
-4.9124
-2.272
-6.77814
-13.0213
-10.3436
-4.67647
-5.64483
-6.14274
-10.829
-7.41763
-3.66426
-7.3802
-6.86536
-10.2428
-8.46044
-3.89034
-1.78196
-6.40374
-14.9805
-11.2428
-4.81889
6.15556
-6.34699
-23.7543
-21.2972
-7.25108
23.3372
0.904092
-46.6232
-34.1639
-11.3805
38.4564
-21.191
-77.1597
-102.319
-16.0155
54.2364
-57.9085
-131.38
-126.587
-16.7834
72.1416
-113.407
-140.473
-123.945
-25.161
81.921
-123.795
-163.961
-22.1871
71.9852
-111.461
-157.336
-121.372
-12.0237
49.712
-60.2033
-137.704
-112.827
-14.1704
31.168
-14.4562
-83.5624
-104.862
-10.1682
14.7468
-7.68494
-54.1462
-29.8204
-7.34521
2.66836
-7.56815
-23.3722
-18.873
-5.30482
-2.5847
-7.54928
-14.7671
-11.9583
-5.09305
-5.89292
-6.67237
-11.019
-9.46843
-4.58332
-4.85832
-7.22682
-12.7646
-8.68277
-4.06672
1.58305
-5.24949
-19.8841
-11.5555
-5.05199
5.30761
-5.99131
-27.3888
-12.0166
-6.34154
5.08008
-8.97758
-25.6233
-22.9951
-9.79015
7.04302
-14.5986
-35.4524
-28.0307
-10.8978
21.1637
-18.04
-46.4317
-42.1173
-11.4322
26.721
-23.2766
-53.9179
-10.8941
7.69073
-20.3201
-50.2891
-25.7907
-9.81141
4.08207
-10.9514
-29.0497
-23.9774
-9.73399
6.05209
-8.74915
-28.4219
-26.7406
-6.54264
3.03164
-4.02708
-29.5286
-17.3285
-4.74459
-1.36953
-6.12507
-20.8651
-11.0378
-4.08967
-5.91533
-7.38809
-12.7088
-9.18542
-4.52461
-6.78846
-9.77173
-7.73039
-4.38554
-2.95629
-1.98895
-3.19094
-3.25366
-7.65141
-14.4995
-10.0233
-4.96715
-0.688667
-6.59472
-16.0303
-14.5093
-6.44213
-1.04039
-7.97803
-19.3811
-14.5858
-5.24481
2.89477
-7.93188
-22.6848
-18.7889
-5.17559
6.53299
-9.73215
-20.126
-4.85287
-0.971212
-12.3732
-24.5213
-12.8843
-4.88901
0.0199739
-8.68533
-17.1699
-13.0823
-5.09942
-3.36279
-9.00552
-16.7012
-13.4129
-5.76806
-4.95716
-9.0307
-15.8393
-10.3783
-4.59601
-3.84313
-1.24681
-22.8864
-12.3928
-3.35367
-14.0338
-6.4037
-3.56498
-10.8243
-7.10485
-10.9211
-7.50206
-3.99756
-7.19414
-7.13752
-10.5172
-9.31373
-4.73934
-5.42747
-6.91318
-13.0504
-10.5589
-4.79949
-3.74916
-7.76079
-15.2489
-10.3709
-4.72183
-0.518618
-9.71546
-11.5149
-4.61601
-4.47732
-10.7704
-15.9891
-10.1436
-4.60494
-7.38146
-9.64243
-12.9429
-10.4252
-4.67384
-8.67162
-8.8825
-12.259
-10.2672
-5.01787
-10.7594
-8.48169
-12.0832
-8.61815
-4.36756
-12.3415
-6.96583
-11.9766
-8.46838
-4.21799
-9.63877
-9.81868
-5.72319
-3.15481
-12.8005
-9.0766
-14.3671
-8.77356
-4.21824
-8.43652
-4.60283
-10.7417
-11.3787
-9.23292
-8.19821
-4.97986
-4.11795
-0.332993
-7.30721
0.231501
-11.435
-11.0079
-19.5158
-11.9196
-9.3511
-20.0238
-10.2288
-8.07068
-4.83966
-10.4887
-3.17054
-4.0276
-0.34946
-2.84956
-0.334656
-6.90474
10.5715
-1.63595
-6.49541
-2.85265
-10.3567
-10.8643
-7.68659
-22.4153
-2.86814
-6.1688
-3.93547
-2.60492
-0.306532
-3.40856
-0.380544
-2.36371
-3.28821
-9.63296
-10.2208
-7.62376
-6.20195
-4.07296
-3.50216
-0.380761
-7.30039
-7.58757
-10.8981
-11.3422
-9.33309
-8.26088
-5.10417
-4.30062
-0.265575
-13.4537
-7.35672
-8.60767
-6.96237
-7.58699
-10.6804
-7.37897
-9.49655
-11.0981
-9.30919
-10.6463
-9.97729
-8.25879
-5.21017
-9.01648
-6.06534
-4.40852
-0.307142
-4.62398
-0.803323
-7.76505
-6.67128
-5.56078
-5.98746
-7.10119
-9.41242
-6.7724
-10.0945
-10.5358
-10.3008
-11.813
-11.2314
-9.40248
-6.43198
-10.5145
-6.96417
-4.85396
-0.861246
-5.22449
-1.00742
-10.6554
-5.8973
-5.22921
-5.425
-3.95977
-4.54187
-6.30091
-10.556
-6.53396
-9.30796
-6.44543
-10.6035
-9.85421
-11.5239
-9.99249
-12.5748
-11.93
-14.2536
-13.369
-5.81776
-7.98972
-5.35643
-10.2053
-7.58411
-10.9036
-7.86463
-4.03412
-0.648225
-4.49626
-1.7622
-4.60762
-1.81204
-5.60874
-3.24414
0.530769
-2.54321
-3.34226
0.420507
1.48427
-11.6739
-7.77546
-19.8709
-6.94673
-11.6891
-12.49
-23.1462
-10.3117
-20.2905
-11.537
-13.9527
-12.4535
-24.1858
-14.454
-5.28402
-5.80993
-3.94675
-9.18968
-7.3328
-6.47367
-4.27745
-0.724967
-3.07522
-0.660406
-4.77134
-2.02205
-3.49465
-1.57986
5.60275
-6.21687
-1.49785
2.70809
11.4056
1.1528
0.383365
-3.09857
-10.0409
-2.07158
-2.7455
-11.4201
-10.8766
-8.35156
-16.597
-12.5308
-11.5696
-2.96905
-6.04872
-4.32301
-20.7288
-5.27729
-8.96006
-5.91405
-0.512435
-3.3755
-0.676559
-4.00181
-1.59274
-4.46563
-1.99331
-2.46869
-2.46113
0.496778
-0.965087
-0.0568321
-1.35056
-9.55477
-2.76219
-6.71437
-4.41727
-9.39364
-4.2079
-7.28687
-8.68882
-7.37666
-7.04278
-12.5868
-11.6947
-9.73274
-9.32831
-4.51557
-6.31791
-4.46777
-8.1772
-5.9831
-8.43228
-6.47489
-0.668674
-3.93022
-0.399856
-4.2812
-1.84329
-4.41005
-1.91679
0.233313
-1.04081
-0.605558
-0.850113
-6.25677
-3.04557
-5.51948
-1.94319
-5.55208
-6.78314
-8.25161
-8.76488
-7.08384
-7.94371
-4.53483
-7.78254
-6.04257
-7.52024
-5.52306
-0.380664
-3.96395
-1.73255
-4.32832
-0.869986
-0.909032
-0.817757
-2.28817
-0.478263
-1.77944
-5.2887
-0.929891
-4.9231
-6.7797
-7.45046
-6.46028
-6.45259
-7.05284
-5.11134
-5.64993
-4.26226
-4.08365
-0.800907
-3.49117
-0.684221
-2.87134
-0.351878
-0.807481
-5.77376
-6.49865
-6.26002
-5.65483
-3.85476
-3.40503
-0.352247
-8.0883
12.0391
-5.52169
-3.81956
-3.09931
-0.559315
-11.8046
-7.24438
-6.26822
-1.92139
-5.68906
-5.50301
-7.53876
-11.3596
-7.84549
-8.46734
-13.674
-11.9866
-10.1877
-14.1187
-15.5005
-13.5451
-8.12635
-5.32689
-3.09604
-4.72543
-8.74522
-5.92173
-4.02073
-0.641725
-3.52579
-0.655126
-3.90447
-1.595
-7.09064
-6.51797
-6.27535
-5.08256
-5.20041
-3.72125
-4.86981
-10.6592
-7.7072
-9.80471
-8.09762
-12.3675
-7.76633
-11.7874
-10.3413
-11.7915
-11.7972
-14.5876
-13.8483
-14.6967
-14.4129
-5.86879
-9.51083
-7.47731
-10.3787
-7.55555
-11.8802
-8.75791
-0.771582
-4.24855
-1.74518
-4.9557
-2.14305
-5.33163
-2.20385
-12.9767
-12.4125
-23.9664
-6.72424
-15.6489
-4.44232
-33.1325
-15.2519
-25.3153
-15.6404
-20.414
-19.6852
-34.4355
-24.1881
-2.56031
-12.7448
-6.4867
-1.06438
-17.7206
-18.2102
-13.9779
-13.3517
-27.2802
-20.5272
-20.3399
0.865721
0.0466184
0.0979248
5.91639
3.14393
4.91123
3.50718
0.35338
5.04167
3.71375
7.58773
6.96145
-5.8022
-2.26739
-8.33791
-0.147501
-15.1869
-6.8664
-10.7147
-9.66452
-14.9691
-7.36536
-4.02296
-6.64229
-4.67704
-2.54495
-3.58754
-0.670205
-3.50602
-1.57826
-2.47711
-0.604128
8.15949
9.9674
0.331905
-17.0128
10.1658
-2.53239
-17.1346
-7.13245
-4.20728
-3.62398
-4.62649
-1.05266
-2.19697
-0.794371
-1.22456
-0.362986
-0.874303
-0.346879
-12.4249
-10.8792
-11.5479
-13.6804
-14.2154
-11.2205
-9.40615
-5.63303
-4.26218
-0.74704
-6.57118
-2.2166
-10.7423
-10.2445
-6.56071
-7.51653
17.521
-11.9411
-14.5507
-11.8225
-20.0499
-36.6854
-15.3122
-13.0951
-20.3397
-13.9754
-1.36559
-4.47398
-8.84169
-6.23096
-8.65091
-6.30683
-3.30387
-0.628761
-3.82135
-1.55632
-4.01448
-1.67395
-7.07002
-17.097
-11.3046
-23.3213
-2.26032
-29.6561
-18.0805
-14.7727
-23.26
-14.0482
-28.636
-21.5752
-20.2768
-4.51708
-35.6851
-12.6601
-31.7378
-5.75984
-68.0689
-27.7089
-36.9337
-27.427
-41.6431
-43.4939
-63.7246
-58.6466
-0.921295
-21.0679
2.67614
-0.156519
-40.6437
-30.8575
-24.299
-25.7831
-67.7339
-46.7566
-48.8278
-11.7962
-1.3528
-16.2333
2.49624
-20.9449
17.3216
-9.19131
-11.9254
-16.2932
-6.99799
-23.303
-19.2519
-11.5727
-11.8703
10.8947
4.81477
10.6053
14.4033
15.8142
12.0482
12.0127
9.87276
-1.08326
13.7323
-4.51731
8.82094
2.13449
-7.50227
-4.04222
-4.03963
-9.31899
-10.2251
-3.61281
-5.01545
-1.76094
-1.77492
-1.41101
-6.95481
-3.84987
-3.82499
-2.99939
-0.816329
-1.23962
-0.423383
-3.12016
-1.41578
-2.75901
-1.34192
10.3808
10.8217
10.5317
9.8458
-0.559776
9.13422
2.34608
9.38057
4.23869
-2.89445
-0.516615
-2.99364
2.88941
-0.660903
-1.39324
-3.06394
-2.43192
-0.581836
-1.80194
-0.402169
-2.34682
-0.588385
-1.64154
-0.420555
-14.9019
-11.7583
-11.5819
-12.6165
-12.9818
-10.8785
-9.41217
-6.04466
-4.51593
-0.706769
-11.481
-10.847
-13.0891
-11.559
-10.0044
-10.4946
-11.825
-13.055
-11.7457
-13.0282
-12.1159
-14.1675
-14.0267
-12.567
-13.2782
-11.4392
-15.2231
-13.8257
-9.6726
-7.20088
-9.85247
-6.36461
-10.7789
-7.80559
-4.20473
-1.70142
-4.59427
-0.789926
-4.3927
-1.73588
-24.0144
-4.3763
-34.1141
-13.4776
-24.0429
-11.0082
-40.151
-17.8072
-30.8639
-28.304
-27.4932
-24.7837
-42.0555
-33.6484
-30.6944
-9.61314
-28.3283
-8.05462
-49.7617
-5.40671
-53.8047
-22.7565
-31.8745
-33.8619
-49.762
-36.8557
-64.1997
-67.0268
-54.7709
-4.14691
-79.7518
-85.3446
-130.146
-64.1213
-134.065
-75.6281
-74.8669
-75.872
-150.665
-143.586
-148.538
-160.823
-6.06497
-55.0067
-14.7909
-74.1499
-142.369
-87.6939
-65.2585
-69.9421
-152.562
-162.633
-166.166
-21.7217
2.72206
-24.3005
2.64398
-58.3163
66.874
-39.32
-28.3682
-27.644
-76.9836
-107.812
-83.7701
-25.7925
16.6171
-7.52887
35.9344
-38.0546
16.7134
-5.81041
-20.038
-12.8356
-14.2635
-39.0746
-58.2179
-13.04
-21.1785
12.0771
5.01731
10.3273
15.2166
13.4291
12.4247
12.0177
4.6576
9.31187
5.06606
10.2262
4.57107
10.0779
6.4814
-2.91718
2.46208
-0.729708
-1.35914
-4.78213
1.42917
-1.71582
-3.12723
-0.81715
-1.99109
-6.30271
-4.93735
-3.81138
-3.66935
-1.2762
-1.77975
-0.52908
-3.96573
-1.84731
-2.85995
-1.36262
10.0108
11.0174
10.9992
4.63938
10.1966
5.32335
-0.411501
2.4897
-1.20143
-1.86011
-2.3937
-2.31301
-0.40043
-2.23649
-0.579667
-12.1637
-14.182
-14.2296
-10.1036
-9.56113
-5.06692
-4.65657
-0.173791
-13.574
-11.6535
-17.1937
-11.671
-10.285
-11.1429
-11.7636
-12.9717
-11.8783
-14.0236
-12.3093
-13.8467
-13.2988
-11.4097
-14.0684
-10.2094
-14.5662
-13.0896
-9.85752
-6.3435
-9.37197
-5.17732
-10.0168
-7.07549
-4.65226
-0.776841
-4.49108
-0.229399
-4.0454
-1.55308
-56.078
-7.96716
-72.7208
-46.2268
-98.0513
-83.8
-140.725
-48.182
-80.1279
-106.859
-112.376
-111.526
-145.185
-188.9
-84.6206
-83.9865
-107.135
-0.440634
-83.6548
-128.541
-114.451
-128.472
-165.328
-178.949
-131.439
-140.355
-117.584
-81.012
-137.27
-131.303
435.083
437.466
-183.063
-155.085
-174.069
-134.477
-144.448
436.797
-76.9828
-145.26
-73.7814
-132.692
-62.3473
-48.3266
-6.5799
-34.8056
-8.59062
-30.948
-5.70688
-28.5385
-1.17412
-94.3237
151.707
-115.577
337.258
430.685
351.157
426.777
-141.559
-85.8848
-135.565
436.287
437.336
433.433
436.405
-173.47
-149.422
-153.542
436.622
388.077
436.082
365.747
-75.9468
-144.264
-60.9391
418.996
-43.0115
443.215
-7.91987
-29.3796
-5.56584
-28.6225
-0.0761648
2.7096
-102.568
129.275
-121.984
350.768
426.964
342.006
424.213
-107.747
-138.804
433.346
435.729
432.68
435.942
-143.921
-160.373
-170.225
435.467
402.27
435.577
360.162
-59.0226
-152.884
-81.4829
428.588
406.122
-44.9963
-5.74649
-39.7525
-9.14589
4.20454
-27.7108
1.69399
-138.712
-66.9961
-115.44
433.404
436.148
432.212
-174.183
-139.844
-191.969
435.684
385.684
-162.003
-91.667
-162.409
-105.356
417.276
-47.212
-156.904
-78.4166
-9.95463
-52.1826
-12.179
-28.4576
0.320799
-43.6161
-2.71476
-84.2734
-48.9114
-85.8002
-112.491
-72.2065
-88.8542
-183.386
-113.566
-159.996
-122.487
-157.729
-101.918
-154.168
43.6055
59.2426
50.4895
115.28
42.5727
84.5821
44.5144
-73.2386
40.0286
-52.3445
9.28355
-61.0166
-140.927
-51.3082
-90.3794
-78.9993
-121.585
-132.697
-96.7458
-92.1075
-142.817
-152.974
-135.928
-145.458
-24.3499
15.309
-4.01334
3.66469
-32.4215
10.649
-12.4693
-63.7934
-22.2509
-32.2752
-68.4316
-109.921
-38.5223
-57.5296
11.4919
15.0565
13.1175
11.4588
11.5062
7.00263
10.4136
5.87483
10.2103
4.54664
-0.969559
0.540381
-2.50849
2.05833
-0.902164
-2.83666
-4.41279
-3.71281
-1.11164
-1.80479
-1.30366
-3.18678
-1.48846
-1.78073
-0.568245
10.1603
11.0419
10.352
3.73589
2.42164
-0.465703
-0.298043
-1.32162
-1.63102
-0.295258
-17.7787
-12.2653
-9.69751
-8.01813
-12.4465
-14.6185
-13.2581
-19.7241
-14.5955
-9.93575
-19.3166
-11.2305
-9.06559
-4.85333
-7.07633
-4.71821
-5.11851
-0.223968
-3.6114
-0.610591
-11.3158
-9.21025
-10.196
-8.42504
-9.27143
-6.77435
-9.02098
-14.842
-13.0559
-15.7187
-13.8302
-18.5924
-14.02
-18.4175
-11.4631
-16.6692
-14.6572
-17.9678
-14.23
-19.2185
-16.3219
-5.69376
-11.1655
-7.91881
-7.94963
-6.01768
-10.7189
-7.49566
-0.620317
-4.52252
-1.78986
-3.60718
-1.46602
-4.58464
-1.88626
-153.775
-108.199
-138.503
-125.6
-211.945
439.119
-177.64
-157.462
-192.416
-216.84
-181.01
-182.663
-137.266
-132.139
439.082
439.71
433.221
437.343
-178.302
-133.299
-139.858
439.511
-174.566
435.612
376.124
-71.1455
-133.192
-50.4252
-144.751
-36.1331
423.661
317.951
-3.77463
-22.6108
1.25656
-16.7685
2.06632
314.929
434.822
437.458
433.728
436.26
431.075
434.425
-143.1
436.682
461.679
434.381
406.22
433.556
415.939
-50.6716
425.512
407.241
315.096
419.4
345.32
1.77645
-25.5407
1.22108
317.392
19.136
274.899
7.76645
436.796
432.713
434.524
428.307
433.105
427.474
431.711
402.884
436.064
344.371
433.24
413.521
432.453
442.537
452.248
349.002
439.731
311.354
445.087
246.853
1.28073
326.81
2.89676
244.46
2.13218
303.903
2.15471
433.872
431.974
435.422
426.768
431.221
426.255
431.018
404.275
434.769
392.391
432.457
434.623
430.832
475.439
320.378
412.414
323.896
426.046
298.729
372.363
293.215
3.40208
1.9252
296.667
294.626
5.77818
435.705
432.173
435.505
427.415
431.764
429.725
433.009
374.138
434.832
-162.389
431.305
416.064
430.682
377.523
-152.679
-67.5794
353.651
225.937
411.398
278.554
1.56218
-47.845
-0.551613
239.208
5.96232
311.215
-7.19589
435.316
-69.8638
427.733
433.365
434.115
434.314
-162.55
-139.391
432.735
549.68
433.304
411.111
-76.0607
-107.802
-106.163
404.753
319.703
395.759
-79.8048
-4.23878
-75.0306
-19.9645
301.274
-13.2473
-60.6474
-18.0988
-43.3894
-56.8187
431.525
434.537
-29.1498
-61.197
-83.1817
-114.886
433.93
410.45
-71.7028
-119.449
-135.532
-143.608
-139.632
-86.0041
-138.018
-130.834
11.6063
15.0257
14.1608
3.56289
10.5968
-2.18107
-1.01598
-4.31014
-3.12111
-1.39229
-0.861019
-1.19615
-0.49674
-1.68522
-0.538814
-7.63998
-7.22336
-5.3697
-3.64791
-12.7201
-22.1356
-5.57048
-17.309
-21.2259
-9.09191
-18.075
-14.0492
-3.94783
-4.42341
-9.82894
-5.30514
-3.31865
-0.622138
-4.14389
-0.772982
-6.05771
-3.77888
-7.60057
-2.91982
-2.51187
-0.380422
0.444544
-22.1981
-13.1706
-24.4294
-5.16046
-17.8942
-4.99508
-26.5823
-11.3502
-24.0181
-17.509
-18.8618
-15.5393
-28.3302
-13.8188
-5.49672
-13.6087
-6.66701
-12.0308
-6.0707
-7.17337
-8.68773
-25.5708
-16.7784
-33.0323
-5.95055
-28.9028
-24.8048
-20.4118
-35.2412
-31.2073
-30.2621
-15.0235
-42.666
-37.3609
-34.6163
-56.4018
-25.1579
-65.556
-43.5617
-124.453
-42.0193
-67.0142
-61.7147
-61.3182
-51.6813
-134.184
-106.656
-113.604
-148.213
-181.146
-76.6205
-169.35
-147.696
-210.488
-108.321
-189.227
-158.775
-188.251
-180.626
-222.846
-166.957
-216.345
439.138
440.037
-213.413
434.597
438.765
-163.708
439.653
-171.092
-214.041
-147.023
438.074
459.427
-43.326
-140.425
-31.4483
-103.97
-25.1894
406.594
293.209
-2.97452
-10.0495
1.36595
-14.2382
1.55508
305.395
-2.73092
436.784
417.688
437.46
371.903
437.14
388.221
-30.5554
433.19
315.088
353.394
273.623
382.171
154.741
2.75778
304.635
302.388
-4.71996
287.474
-0.42301
423.177
433.788
362.327
437.18
412.354
434.554
452.381
309.803
418.102
300.453
421.212
274.639
440.124
259.288
1.39239
334.859
6.94917
294.487
-1.94391
250.316
-60.0485
415.37
432.523
440.673
433.25
558.788
432.142
620.434
319.012
444.165
223.595
424.339
261.363
435.911
279.685
-0.415355
303.777
4.60359
148.442
275.609
-29.4331
430.807
430.891
417.698
433.198
467.983
432.759
430.454
274.434
366.021
305.844
430.21
9.64452
437.999
196.606
268.913
1.06228
197.286
-84.7343
377.697
431.597
443.203
432.401
443.954
432.395
428.381
276.175
424.135
297.45
453.928
232.719
385.08
228.689
5.32418
335.113
-2.45792
161.561
265.189
-0.647427
413.545
433.27
409.09
431.943
209.783
430.016
409.648
291.031
417.816
400.906
147.951
431.897
286.414
-23.9937
-12.8532
273.859
0.611137
258.339
-2.58355
434.49
-22.2244
-57.9846
431.458
430.522
431.049
433.967
420.649
-69.5241
-117.177
430.253
409.652
433.119
-80.0655
-129.083
-115.844
432.269
285.736
-119.54
-93.4446
-21.137
-82.681
-16.2405
312.721
-4.79721
-78.2341
-21.2554
-56.3119
-19.8707
-39.6312
429.905
-16.1428
-53.1419
-123.189
-63.351
-105.525
-115.179
-69.5121
-99.6831
-133.791
-132.501
-136.878
-119.242
-102.962
-130.369
-138.845
-26.5055
10.3816
-11.0951
1.3629
-53.7079
29.31
-39.3951
-99.8788
-39.6571
-59.0542
-63.163
-109.768
-44.2859
-70.8559
-4.09179
13.7431
-4.91514
36.2188
-33.115
18.7557
-29.6898
-10.1061
-15.0082
-38.293
-60.2507
-27.9714
-4.81724
14.5459
-3.74007
12.946
-23.3816
13.8541
-8.40545
-12.2518
-5.75594
-5.29857
-21.5247
-22.4374
-12.0027
-9.80294
16.6312
16.4567
15.978
8.17524
11.3341
-5.43762
11.9693
-5.13947
9.54634
-1.84993
-4.32252
-8.30473
-8.19694
-4.28708
-3.90355
-0.881315
-5.53755
-1.37033
-1.63408
-1.3252
-1.05121
-2.48263
-1.20916
-1.39175
-0.468872
11.0826
9.36204
-1.427
-2.83593
-3.14788
-1.90763
-1.48395
-1.46306
-0.362758
-5.59893
-5.47888
-7.13877
-6.34339
-6.24967
-8.66136
-12.731
-7.15916
-10.2675
-7.88824
-11.0706
-14.7164
-13.0462
-10.8563
-9.2597
-13.6756
-12.7964
-8.63241
-6.04885
-8.39528
-5.3531
-9.73235
-7.0597
-3.97705
-1.68189
-4.62972
-0.20956
-4.49389
-1.85972
-17.144
-5.20423
-21.7378
-7.0781
-12.2984
-7.53674
-14.9762
-16.1894
-23.2673
-17.7205
-16.0459
-15.8122
-20.294
-19.328
-25.4501
-6.73653
-19.7305
-10.966
-29.5596
-19.1708
-26.9801
-26.8307
-39.1633
-36.5705
-45.0179
-140.543
-13.8012
-53.5182
-52.9061
-143.891
-147.674
-117.772
-61.3067
-60.7159
-173.705
-157.101
-38.0882
232.646
-141.299
114.856
-56.4879
313.602
433.275
-157.944
-145.276
-197.578
-78.8861
-149.271
437.159
440.057
-180.839
-204.957
-166.343
-186.365
-172.61
439.544
-41.797
-118.262
-28.492
-148.248
-57.439
-19.2525
-2.90221
-15.6506
-0.407887
-15.1723
-3.03886
-5.32499
2.11106
-204.949
436.13
437.746
437.238
439.325
434.198
436.886
-148.038
437.425
403.343
438.552
421.236
436.006
421.057
-19.8891
406.294
291.152
430.548
-5.47609
427.443
215.419
3.06964
293.219
1.3272
0.436456
3.55413
270.511
1.18537
558.862
435.763
427.773
436.053
358.374
435.585
364.439
268.539
415.877
254.797
416.579
277.046
444.293
13.5283
0.95667
319.553
308.796
4.37988
228.992
-114.744
384.884
437.386
419.643
435.722
440.91
429.796
492.601
203.464
439.703
265.385
438.245
136.418
402.294
166.821
0.102082
356.395
-22.5411
208.565
327.35
584.222
431.164
594.144
427.294
438.189
421.838
374.14
224.708
432.996
211.658
340.637
165.48
327.508
269.645
-24.3642
232.638
-28.7903
225.043
271.629
535.255
417.308
413.647
417.13
410.97
415.373
412.461
414.783
429.425
422.504
429.877
419.103
422.168
419.796
422.788
472.602
431.717
492.372
420.999
374.64
422.153
350.05
180.025
452.012
71.2733
330.018
268.311
276.158
239.012
162.864
269.123
497.337
239.142
766.781
454.242
433.851
212.29
425.25
394.584
429.528
432.874
211.65
395.342
196.627
264.804
186.302
441.716
237.538
374.73
-0.491121
211.44
724.865
266.848
392.463
429.087
410.902
431.26
551.253
429.546
403.337
182.799
429.374
327.138
439.208
234.155
426.866
211.514
-27.3503
284.455
-1.78156
315.907
235.591
-2.38703
430.599
432.915
433.909
425.902
429.562
431.681
432.932
440.756
433.094
429.084
444.29
431.958
356.321
302.483
-89.1871
424.222
236.082
342.21
296.022
-7.57227
-75.4724
-24.6166
261.087
-25.8524
298.1
-16.1076
422.997
186.561
29.3479
337.112
420.802
200.656
-36.4575
434.224
-31.9698
-54.0173
433.714
434.647
-45.7528
-45.9931
-115.955
-69.5225
-106.306
433.259
324.663
-51.14
-118.456
-96.3209
-119.874
-133.99
388.451
300.273
-131.265
-124.944
-24.9186
-89.8638
-32.2201
-27.7589
-86.7937
-33.5577
-58.3486
53.2414
-27.2339
-43.7979
23.3471
-39.5187
-110.647
-105.178
-59.5183
-136.104
-53.1358
-120.312
18.8617
-20.8585
25.1278
-26.3718
13.6251
-6.55568
-21.9098
-25.6629
-41.0475
-86.3786
-21.6493
-32.309
-11.4544
10.8455
-5.65175
11.9054
-0.704898
10.2896
0.745951
-18.5337
-8.98239
-9.89142
-12.6248
-16.8283
-7.73587
-11.3697
13.8909
8.21204
11.0199
14.9634
13.1037
9.8224
9.79599
-0.626865
8.39616
-0.584409
8.54484
1.81886
8.27852
2.47136
-6.80156
-3.00024
-3.75307
-3.92351
-6.33218
-0.0990967
-3.24821
-4.13043
-2.48258
-2.27144
-6.75092
-5.5747
-3.29543
-3.27479
-1.86333
-1.99652
-0.587471
-4.47562
-1.98096
-2.79174
-0.688588
10.421
6.88305
9.28688
-0.56537
8.5472
2.09371
-2.81074
0.749823
-2.66894
-2.00541
-2.71086
-3.14217
-0.448621
-2.84858
-0.411299
-9.32145
-10.2009
-9.01697
-8.36327
-5.66825
-4.77816
-0.222605
-7.11313
-5.63632
-5.94444
-13.5887
-6.90508
-5.20905
-5.66371
-9.98122
-7.00309
-10.1316
-6.86859
-9.39479
-6.68066
-9.73665
-9.32811
-13.5656
-12.8104
-10.4916
-9.84175
-13.4033
-12.8468
-5.49382
-10.7358
-7.97649
-8.62661
-6.14858
-11.0427
-8.26703
-0.230694
-4.83113
-1.95759
-4.56572
-0.739674
-4.93455
-1.98399
-154.322
437.818
439.815
-77.2984
-157.176
439.686
439.486
-166.737
439.354
-181.944
-153.867
438.951
431.833
-59.1007
-20.2303
-125.652
-62.3596
435.915
-37.4933
-4.28204
-8.52287
2.34697
-31.1749
-7.00118
-25.858
0.205927
439.442