/*--------------------------------*- C++ -*----------------------------------*\
| =========                 |                                                 |
| \\      /  F ield         | OpenFOAM: The Open Source CFD Toolbox           |
|  \\    /   O peration     | Version:  4.0                                   |
|   \\  /    A nd           | Web:      www.OpenFOAM.org                      |
|    \\/     M anipulation  |                                                 |
\*---------------------------------------------------------------------------*/
FoamFile
{
    version     2.0;
    format      ascii;
    class       volScalarField;
    location    "3";
    object      p;
}
// * * * * * * * * * * * * * * * * * * * * * * * * * * * * * * * * * * * * * //

dimensions      [0 2 -2 0 0 0 0];

internalField   nonuniform List<scalar> 
146404
(
196.443
89.2398
622.368
469.557
318.728
185.227
72.5763
629.39
492.792
173.532
71.3197
639.693
494.994
336.789
184.888
75.3302
345.623
198.973
84.0437
582.083
458.658
322.005
188.031
75.436
560.54
443.542
310.587
173.518
63.5147
554.025
430.288
272.943
134.898
35.8298
588.109
449.586
301.381
163.308
31.0657
614.811
507.282
169.227
32.6053
589.885
497.864
324.533
136.344
39.0559
595.286
484.161
332.197
169.216
61.5172
597.355
470.245
332.45
179.666
63.1677
620.403
484.844
341.017
195.204
74.0711
584.07
173.087
58.3054
574.782
456.501
304.069
165.646
33.3264
564.112
445.269
273.241
129.547
34.1687
575.516
441.511
259.416
128.491
37.5737
612.754
460.865
297.477
155.143
27.973
644.09
515.207
163.795
28.5924
612.285
512.636
323.624
127.316
34.2909
601.474
480.336
293.243
129.439
31.3775
605.71
499.119
330.909
171.283
32.1555
607.955
486.515
342.37
169.672
54.0863
613.171
514.729
189.657
59.7335
473.809
328.682
189.464
77.788
560.948
433.318
288.588
129.08
38.97
580.401
463.784
305.952
151.582
32.1924
610.201
499.45
331.363
165.994
28.4103
618.123
476.07
300.621
152.694
28.8019
643.381
478.848
294.631
116.869
31.1093
690.691
474.445
284.249
145.093
25.7232
727.178
545.607
152.939
25.0899
684.163
516.269
308.558
148.997
27.3157
650.69
532.307
320.458
158.538
27.1585
643.729
507.743
323.942
165.167
26.7083
632.726
529.155
353.158
179.756
29.6119
598.665
460.617
304.196
168.675
34.9603
580.868
450.32
307.441
173.446
58.4279
465.454
328.464
195.148
80.2509
548.679
431.997
295.309
160.742
62.9635
548.207
429.257
259.287
124.956
35.0578
590.179
458.496
287.962
153.216
29.3793
662.686
488.638
296.064
162.681
27.3514
733.179
507.411
306.536
158.133
41.6653
828.089
489.21
275.159
133.987
44.0292
930.182
476.465
287.694
143.579
39.5278
986.113
541.289
141.715
35.5123
928.15
508.948
310.518
152.605
39.1842
787.969
492.38
297.268
145.847
39.7307
732.606
545.394
331.861
167.721
25.6732
662.266
512.704
321.905
168.635
28.0332
577.864
452.097
268.342
133.665
38.1596
572.253
432.327
275.655
139.465
38.4666
579.507
440.938
303.177
171.366
61.8583
574.426
450.557
305.561
174.023
72.7148
545.427
459.26
291.147
127.823
36.9576
563.197
429.389
254.997
118.515
30.8733
621.515
472.057
239.411
118.187
30.5002
739.644
455.845
262.592
139.472
42.2016
953.725
517.984
287.249
153.101
40.5066
1282.26
1391.77
146.989
48.7102
1396.33
1399.72
1386.29
1181.02
1401.83
1400.89
1386.1
1171.6
645.192
1385.27
1391.73
1381.87
1196.13
1277.75
1375.88
147.591
43.0526
980.564
143.468
39.9933
731.471
493.148
286.263
114.359
31.1634
601.389
457.191
262.759
124.166
33.5503
577.092
484.498
309.118
162.092
31.5455
581.89
469.212
308.462
170.983
55.5673
596.668
465.532
322.535
186.887
69.7557
575.343
461.171
303.811
166.879
56.7479
571.909
474.273
309.683
148.286
31.0159
604
458.194
284.075
145.637
27.3934
690.471
454.822
265.502
140.87
43.0612
933.514
454.866
267.024
145.377
42.5076
1391.71
1399.56
1396.39
45.5356
1439.6
1423.76
1392.18
1167.06
609.938
1446.71
1429.69
1390.59
1214.2
618.326
1446.39
1429.48
1389.91
1220.25
631.113
1437.52
1424.66
1386.87
1220.62
624.823
1411.7
1404.9
1383.65
1192.1
610.005
1338.35
1381.85
1381.53
1250.28
40.6504
917.731
475.514
289.459
129.52
42.8481
694.28
484.175
288.17
145.374
26.0411
625.461
482.668
303.306
158.63
27.1735
605.415
493.227
326.162
179.215
30.1043
611.873
480.184
330.398
178.513
52.2163
564.405
437.125
312.623
157.994
33.3514
588.997
472.666
312.091
162.709
28.6707
652.617
155.235
25.766
806.987
504.768
299.654
145.477
41.3452
1269.61
273.423
143.819
48.7348
1440.32
1425.02
1396.5
1183.49
604.472
1454.68
1439.61
1398.49
1251.42
573.01
1465.6
1439.94
1392.55
1280.03
569.779
1471.36
1442.09
1380.5
1260.33
550.378
1453.25
1439.31
1388.67
1302.47
599.581
1436.57
1427.43
1387.41
1250.16
623.091
1400.31
1398.64
1378.24
1184.16
606.397
1255.9
1368.48
1379.35
133.5
47.0494
803.202
533.179
307.962
153.107
25.6883
669.686
567.405
160.321
27.6452
615.375
500.043
326.771
171.801
30.7106
595.856
459.101
306.264
162.943
54.5761
478.246
331.232
190.307
76.3331
448.93
326.275
190.951
77.688
531.768
427.573
271.864
126.073
33.3344
559.534
431.132
255.981
123.314
33.6785
639.642
461.88
285.708
143.195
26.9926
864.245
476.565
290.938
129.973
39.9097
1394.02
1400.97
1392.25
1251.48
27.7719
1448.66
1432.72
1397.08
1201.45
580.652
1465.48
1442.59
1396.02
1287.56
523.343
1490.43
1451.42
1382.11
1117.2
572.932
1511.38
1451.33
1334.3
992.067
446.088
1479.13
1451.34
1367.31
1054.85
576.133
1447.73
1435.34
1384.35
1277.59
512.99
1422.03
1409.39
1379.15
1207.91
576.116
1331.24
1379.73
1375.43
1150.73
623.232
845.572
508.698
281.053
142.376
41.7716
617.582
501.013
298.963
123.795
32.9888
574.3
450.279
272.628
135.312
39.1513
583.451
457.498
307.581
168.147
60.8012
617.226
470.141
333.998
197.981
83.2218
575.289
448.416
319.774
186.299
72.3327
532.905
427.305
272.53
125.403
32.6746
561.244
432.372
261.743
119.543
30.3831
639.802
469.045
285.818
144.224
27.1658
903.855
458.334
286.958
146.029
40.473
1401.45
1408.01
1391.8
1195.07
1450.89
1435.65
1397.45
1226.6
667.108
1469.89
1449.08
1395.48
1291.91
529.695
1497.1
1457.84
1345.79
1005.43
523.084
1480.77
1445.55
1296.43
917.048
499.865
1503.85
1455.27
1337.24
985.507
528.123
1452.3
1439.3
1385.21
1275.12
545.013
1429.77
1414.71
1383.27
1232.58
574.45
1347.27
1385.28
1379.53
1214.38
622.661
857.082
487.438
278.012
144.735
42.8036
610.011
451.979
271.027
120.256
29.8707
571.951
446.162
281.909
134.739
33.594
579.221
454.878
311.24
171.422
61.2236
615.259
459.046
322.005
189.964
79.6304
451.565
322.011
191.012
78.8296
556.762
440.983
298.161
160.485
33.2054
583.125
451.6
292.714
152.23
28.5275
655.078
487.004
301.602
144.675
26.5462
870.658
491.288
293.125
143.535
40.2884
1383.72
1402.59
1393.12
1176.71
32.2269
1446.15
1433.96
1397.99
1200.43
617
1461.49
1448.71
1401.37
1299.32
513.144
1483.76
1461.18
1391.76
1126.54
561.556
1500.29
1462.02
1361.28
998.888
522.472
1485.55
1458.7
1382.55
1100.22
596.5
1449.01
1440.29
1395.03
1313.32
515.57
1426.15
1414.97
1389.47
1218.44
592.565
1328.17
1388.43
1384.71
1202.23
655.305
830.821
516.411
301.731
154.582
24.6273
653.576
476.057
300.421
152.688
26.171
597.273
469.946
311.431
165.742
30.3582
585.094
456.096
307.377
171.4
56.9893
615.479
468.969
334.177
195.169
84.5791
585.292
456.41
307.56
173.558
52.8071
601.888
484.98
320.614
164.72
29.4949
649.284
161.408
27.2232
755.127
519.852
304.786
134.284
41.3259
1233.72
284.009
147.811
47.7632
1424.61
1421.37
1400.45
1181.5
615.13
1449.83
1440.88
1404
1244.95
540.863
1458.24
1448.87
1402.72
1291.19
608.899
1459.78
1450.22
1403.61
1283.82
571.212
1452.98
1445.53
1400.38
1288.86
598.715
1444.56
1428.76
1397.88
1247
621.379
1408.1
1406.88
1392.96
1194.67
627.117
1246.51
1388.89
1392.45
138.516
46.2806
751.742
509.639
311.223
154.749
25.2595
649.453
543.743
163.854
26.8364
608.059
510.491
336.366
182.346
30.2124
600.905
474.709
321.709
179.525
52.6685
472.42
329.46
192.976
76.8232
586.516
467.354
316.88
158.746
56.2005
577.151
458.302
304.661
160.274
33.9433
579.944
441.452
259.219
121.882
34.1133
666.483
478.994
290.248
117.286
32.0853
863.112
482.204
291.741
135.022
43.855
1327.57
1405.71
1403.37
50.9794
1419.63
1420.64
1402.26
1196.61
600.552
1439.19
1427.36
1401.78
1213.54
565.555
1442.83
1429.9
1405.53
1211.37
524.708
1435.52
1424.52
1400.25
1239.57
632.596
1411.53
1411.53
1396.59
1193.64
605.326
1336.63
1399.12
1397.93
1135.5
40.8309
806.305
455.092
283.642
140.311
26.4046
591.682
449.418
265.903
123.043
30.6022
569.496
482.527
306.223
159.994
30.9073
583.754
467.668
306.297
164.583
51.6632
603.33
472.395
319.853
180.551
65.5365
595.787
466.141
318.02
182.256
70.5147
560.728
451.281
309.504
165.598
58.6694
554.534
441.444
271.213
130.135
35.8656
615.781
481.922
301.913
150.304
29.6429
709.395
482.772
287.728
144.884
27.8363
857.55
547.888
304.192
155.436
42.1968
1229.95
1402.99
301.312
158.734
50.8879
1361.9
1406.66
1402.65
1191.26
1360.91
1407.36
1402.32
1204.98
655.481
1361.55
1405.1
1400.16
1205.7
1234.29
1399.35
146.198
47.2405
827.856
148.815
24.5779
685.689
478.508
298.31
147.829
25.4732
567.355
450.396
277.529
126.86
30.6641
547.213
434.786
281.222
141.228
35.562
565.356
449.962
308.02
171.615
59.1493
598.372
459.915
323.382
189.682
73.2694
569.242
455.376
302.918
167.843
64.9232
549.945
464.512
304.455
133.081
39.2897
590.661
467.809
302.444
159.184
32.2761
649.552
507.516
325.563
168.787
28.6794
682.421
482.603
302.663
155.249
29.185
719.258
480.448
293.715
156.687
28.8449
787.058
468.682
290.061
145.729
45.8182
830.422
543.982
150.794
45.4542
772.28
485.07
288.788
140.279
29.6306
719.932
492.931
295.09
143.489
27.2905
680.952
525.592
320.996
164.381
25.9089
639.961
518.82
330.237
168.077
26.8049
585.522
466.198
308.796
162.289
31.4866
563.588
454.49
311.965
170.981
53.9985
567.865
457.607
324.109
187.759
72.9331
565.645
449.108
296.479
162.767
60.6233
588.892
480.622
317.626
172.65
55.1322
602.307
490.794
330.64
175.154
32.9243
574.642
452.133
282.412
131.437
33.1389
584.959
450.329
278.437
125.205
30.759
648.32
477.048
305.01
154.642
28.8521
680.372
536.557
160.479
31.1325
609.523
512.223
304.999
124.502
34.7716
594.103
462.054
275.962
124.8
30.5128
610.538
489.726
312.089
159.565
29.5538
608.518
499.101
329.925
174.021
29.912
593.283
478.087
321.278
176.262
48.8169
581.537
461.836
320.124
183.839
66.8299
467.236
330.625
196.721
81.1951
600.443
184.149
71.9027
580.611
458.809
307.057
174.239
60.2727
571.607
467.295
314.809
171.125
59.0141
560.233
436.591
282.324
138.535
35.1433
598.376
462.843
310.388
164.662
31.2707
623.028
512.053
167.515
33.5398
583.593
498.816
313.471
132.698
39.1034
588.859
492.087
272.73
136.822
37.8254
587.089
478.484
312.464
167.777
52.2632
588.662
463.358
311.545
164.969
51.7366
602.797
509.467
333.342
178.366
62.5451
327.558
186.525
74.3488
599.355
472.536
315.988
189.845
75.5241
578.475
460.785
327.698
193.129
78.5522
568.606
447.551
308.815
174.716
62.0236
590.112
450.498
304.858
170.775
56.477
609.064
497.536
172.683
55.0254
593.289
473.247
306.044
160.974
59.2224
584.87
461.291
303.375
167.898
62.1459
591.982
472.493
319.377
184.626
72.422
600.71
480.22
324.844
186.647
71.9531
612.71
469.085
332.694
197.262
82.281
633.684
491.149
183.056
78.4961
622.012
488.88
334.63
188.02
78.9395
192.054
83.4774
350.884
325.294
215.184
188.136
99.6765
78.1647
10.7132
634.12
514.105
347.33
483.307
344.754
324.309
213.764
326.155
199.36
190.164
97.4919
176.903
93.422
77.7227
9.26422
76.9343
8.52664
634.735
527.971
525.533
491.046
501.695
371.125
344.525
211.074
177.463
94.7238
188.487
97.4659
77.3135
8.67674
78.9917
8.67582
517.29
496.331
370.807
344.716
212.819
190.138
98.6642
79.8887
9.11057
483.074
465.221
351.368
327.45
214.978
192.912
97.1808
80.1422
8.05502
585.652
483.791
573.594
490.218
465.126
351.761
454.085
361.65
328.946
215.789
322.353
226.18
194.417
97.8707
189.149
105.861
80.7949
7.50762
76.5762
11.6652
572.305
489.528
569.423
501.681
453.621
364.738
457.005
368.268
324.499
227.255
320.574
228.354
189.705
106.715
184.579
107.015
76.4213
11.8686
71.8903
12.7139
617.593
488.379
565.593
519.68
573.988
530.103
468.08
351.335
441.62
382.084
443.127
380.049
220.756
319.79
222.022
302.143
240.826
300.552
239.342
101.716
185.865
101.9
168.818
116.724
167.449
114.161
73.2525
11.489
59.1948
20.7362
57.7537
20.2933
490.621
628.243
517.978
590.93
538.096
609.697
540.392
354.602
484.468
346.011
444.521
371.707
497.049
350.134
220.058
328.356
202.123
299.603
236.822
325.962
198.473
100.165
175.321
95.5322
166.901
107.839
169.364
102.173
11.5369
71.5614
11.4203
55.0723
19.1302
53.4385
18.8331
528.764
640.212
535.091
614.098
553.543
608.521
569.41
496.837
379.86
504.543
508.493
384.647
335.423
217.804
199.288
337.829
216.86
97.1621
181.541
100.924
169.489
101.416
160.86
106.513
11.6419
73.1942
11.8613
54.1065
19.1114
55.5227
19.9843
524.178
528.072
602.636
564.722
600.209
558.763
379.024
489.783
373.207
485.316
401.54
483.355
403.065
220.842
347.111
219.326
317.559
238.028
318.526
240.419
102.621
198.061
101.861
164.736
114.236
168.311
117.202
12.1668
84.4396
8.12857
59.2468
20.8605
61.3
21.2812
603.772
536.155
606.827
522.409
372.643
473.346
402.93
484.026
388.559
220.573
323.521
244.112
344.603
235.969
102.804
172.762
117.49
193.811
106.086
8.66792
65.0425
21.4461
76.6999
12.0669
607.756
523.137
629.298
512.444
483.742
387.29
492.284
380.907
344.743
237.2
340.048
236.643
196.179
105.433
195.626
104.122
76.0575
11.9352
73.9372
11.3356
629.662
512.07
493.101
374.537
348.299
228.867
202.697
99.2062
79.7751
7.85702
596.01
506.882
175.835
96.9909
71.9239
10.2065
588.903
485.563
592.636
507.13
574.667
523.246
466.946
355.877
478.25
446.854
374.5
319.814
220.414
201.895
304.114
234.46
185.962
99.3498
173.037
97.2855
166.377
106.932
74.7609
11.243
70.6408
11.4008
59.3274
20.4349
491.387
563.809
516.485
569.918
529.028
563.462
530.73
357.975
443.189
378.365
450.843
378.301
457.677
386.975
222.55
306.173
239.771
305.726
236.888
309.418
241.296
101.921
172.593
113.86
169.476
108.123
168.794
110.484
11.346
65.0114
21.2633
57.5752
21.3026
59.91
21.1853
384.054
497.899
352.212
454.522
387.333
504.874
355.996
236.848
327.053
197.65
301.412
235.842
328.885
193.327
518.688
386.338
512.186
529.088
389.967
197.935
339.674
216.599
193.451
341.805
215.697
546.841
616.88
521.54
598.388
563.412
602.142
558.519
521.307
605.874
555.829
621.497
535.744
382.024
476.775
401.606
501.012
383.145
235.87
325.157
249.6
341.308
226.445
103.386
175.018
109.037
184.758
109.348
11.6133
59.2208
20.6741
69.8626
11.6242
623.99
535.777
514.006
375.616
474.169
354.178
348.522
214.973
329.435
212.751
190.23
99.8944
187.862
99.7039
71.9096
11.4902
78.5305
11.0871
577.331
478.801
437.361
345.602
302.445
208.976
171.371
102.907
71.062
13.6316
591.005
505.466
574.52
486.234
573.045
525.224
479.855
426.702
359.328
458.436
345.558
184.627
285.83
219.346
304.359
204.281
172.824
97.2978
156.688
111.026
153.624
107.846
70.6205
11.8268
59.8731
21.9742
57.931
21.3321
469.586
364.067
469.903
345.545
495.424
356.847
319.035
218.306
306.722
200.891
330.331
195.865
387.37
507.666
355.978
467.691
383.366
529.907
345.886
229.845
328.744
192.265
291.779
223.092
321.665
183.1
532.718
390.205
541.414
540.283
385.944
192.395
341.058
213.635
184.06
332.796
207.215
390.032
514.702
377.153
512.63
390.909
496.571
358.21
233.867
350.297
214.055
343.332
228.387
328.728
209.27
535.864
627.615
500.424
605.76
534.993
594.877
538.968
468.799
359.264
481.417
365.341
451.819
378.843
211.233
324.015
219.392
320.467
219.5
307.606
239.101
104.598
184.144
99.2535
180.708
103.486
168.412
107.506
19.5922
72.9235
11.3787
55.9198
20.1858
58.0884
21.0673
498.852
595.908
512.145
488.822
354.423
464.427
364.156
465.476
358.819
215.216
321.652
227.957
329.071
222.668
99.3235
185.907
100.918
194.736
103.968
11.86
69.4714
13.0681
78.868
11.8534
563.932
475.577
441.953
346.962
309.856
211.117
177.97
102.106
75.4032
10.9445
569.213
483.345
559.157
480.977
552.01
504.532
426.028
362.364
442.257
349.709
430.577
372.219
287.901
221.295
309.74
212.613
294.238
223.876
159.087
113.098
176.323
103.334
158.49
112.641
60.6015
22.0066
74.5838
12.1308
60.4119
21.9058
347.808
505.519
356.134
448.751
368.421
481.65
347.839
203.681
328.265
192.428
288.609
223.002
300.072
202.138
357.872
467.209
374.815
502.269
336.924
502.064
360.563
195.652
321.624
224.489
307.372
190.6
311.514
200.683
371.588
532.668
343.082
461.751
357.959
537.504
328.915
213.708
319.181
181.186
276.08
204.201
306.709
169.865
540.881
381.506
556.138
526.941
365.146
182.077
328.553
203.269
171.601
314.933
192.174
415.721
520.322
393.283
545.274
389.887
545.818
245.205
344.26
227.983
336.336
216.43
190.682
383.785
486.068
367.077
530.693
360.824
491.219
377.956
216.216
320.786
217.115
329.873
195.348
323.414
217.523
529.987
597.648
493.021
575.539
538.565
572.289
520.683
379.879
460.008
364.083
457.346
393.663
443.408
387.21
244.801
324.804
227.758
309.27
245.143
306.522
244.082
111.87
191.35
105.987
170.739
115.831
171.497
118.681
21.2873
74.8488
12.398
56.3989
22.1179
60.4476
21.9174
488.143
581.985
496.166
359.879
454.06
367.667
223.473
320.59
229.777
105.152
186.347
108.512
11.8673
73.278
13.2197
457.913
334.808
311.575
202.571
181.001
89.0675
68.7704
6.56159
560.301
481.211
579.583
478.895
556.797
502.944
442.531
348.419
455.223
336.671
434.378
363.377
308.577
211.728
313.659
202.115
289.404
220.143
175.858
103.086
184.805
90.8463
160.725
112.027
74.4826
11.9623
74.5946
6.32902
63.1205
21.2168
343.482
509.122
348.327
492.857
338.589
524.655
320.909
199.301
318.351
193.749
286.997
196.402
293.139
167.475
355.264
467.169
362.602
546.444
487.937
326.94
196.107
281.501
207.176
160.212
288.122
179.038
354.811
477.311
334.44
318.784
1391.82
1393.36
201.726
289.123
183.426
292.256
177.008
1389.4
88.6575
129.621
86.0151
141.871
72.1449
60.3553
15.2404
42.4936
15.0555
50.096
12.7254
47.2861
6.34969
565.589
983.312
601.593
1327.58
1386.25
1347.51
1389.31
331.545
508.981
326.121
1392.63
1393.07
1392.77
1393.36
182.715
302.27
168.291
1388.85
1182.38
1387.62
1190.78
80.3357
141.466
67.9167
1185.6
53.9317
1189.15
13.7347
36.2451
13.0538
43.7403
4.95143
3.37623
603.206
960.899
604.414
1348.68
1388.85
1336.65
1383.16
519.34
358.653
1392.31
1392.81
1388.74
1388.33
172.39
312.34
187.367
1387.12
1207.71
1384.54
1193.75
66.7967
148.928
76.7963
1184.16
1196.6
59.8859
12.8715
37.4998
13.1964
2.85119
38.1688
4.54012
358.531
514.162
365.895
1385.63
1387.59
1376.48
193.014
312.704
213.181
1384.29
1217.57
178.452
79.4627
140.919
82.0156
1201.43
50.8541
156.762
66.209
13.9757
40.1506
14.5924
40.2374
4.98596
46.3179
6.86131
385.741
509.32
394.548
341.076
567.747
351.749
219.025
304.576
223.969
303.87
186.408
324.394
177.554
620.992
703.885
592.085
813.793
632.494
748.376
620.325
383.852
540.958
360.867
517.979
359.22
210.047
328.64
193.411
305.618
196.536
83.5504
170.758
86.4759
149.155
78.5692
155.141
83.8818
369.236
478.228
398.486
491.224
384.202
489.37
400.472
204.528
303.388
230.015
294.684
216.232
301.74
226.069
500.084
575.37
530.994
590.153
505.316
382.835
449.531
388.437
463.198
364.457
242.911
306.025
242.785
323.904
226.549
119.252
170.363
116.051
188.087
102.714
21.83
59.491
20.907
71.9973
11.139
598.933
497.437
472.805
355.697
331.146
224.142
188.592
101.612
70.9648
6.89879
579.55
478.711
586.168
495.17
454.648
336.524
453.598
346.156
312.916
202.969
304.96
204.242
181.433
92.0244
168.272
95.1386
71.163
6.56374
69.7043
11.1629
487.755
555.208
519.804
577.237
512.633
559.602
525.03
344.584
445.724
366.714
439.369
363.553
449.274
370.558
206.78
286.395
218.746
288.931
220.049
288.973
219.588
98.3789
157.682
110.866
155.279
104.85
156.279
107.9
10.8791
59.4322
21.0509
60.1619
19.894
57.1433
20.41
346.116
493.684
323.487
463.309
317.647
1395.97
206.752
283.12
180.411
253.419
199.387
168.405
316.183
314.228
1396.26
1401.49
1406.5
1399.43
168.586
285.043
168.974
1398.38
169.841
1390.84
1174.25
71.9157
148.511
68.9757
131.843
60.7211
1167.22
644.127
13.7566
47.8009
7.21894
42.412
6.45888
619.019
1396.18
1394
1408.1
1400.31
1412.51
1400.83
165.764
1386.85
1279.03
1389.94
1209.99
1389.1
1221.74
68.181
1203.67
1167.92
641.587
1200.35
654.786
6.47994
33.2989
3.15944
616.6
8.79945
608.586
4.40128
1393.69
1401.83
1395.57
1414.05
1400.66
1414.77
1400.4
1225.87
1386.97
1170.24
1389.29
1219.66
1388.8
1251.4
1179.14
675.436
1211.19
645.494
1207.68
630.286
3.0158
647.332
-1.55433
590.927
14.3966
602.513
46.711
1394.77
1398.62
1389.76
1413.93
1399.83
1412.27
1397.79
1196.67
1382.31
1226.12
1388.67
1265.92
1385.5
1279.86
670.455
1200.51
682.445
1206.94
660.927
1193.31
646.873
-0.386182
1.26488
629.562
620.67
3.58719
1388.36
1377.18
1387.97
1409.11
1395.6
1402.69
1392.67
1205.85
1386.02
173.16
1384.82
1251.97
1383.28
1247.67
139.854
60.8509
1190.43
617.737
1210.23
628.742
3.07896
48.7946
4.87689
600.306
11.6796
607.543
23.3763
1387.48
575.893
1397.81
1388.69
1382.84
1385.73
172.212
178.094
1382.46
1338.14
1381.62
1264.96
60.3807
147.902
69.7144
1204.45
635.645
1223.21
68.7742
6.04274
46.628
11.6299
609.689
37.4658
40.1566
3.95954
475.276
366.539
1375.8
1385.54
473.937
333.375
279.912
203.391
1382.93
1271.43
286.179
178.436
78.6053
133.913
86.2875
66.823
125.828
85.7826
507.386
607.105
517.012
362.085
473.843
363.07
223.537
322.53
219.66
99.6479
181.029
94.4357
10.2319
64.536
11.6579
586.899
500.623
582.037
495.915
467.041
338.839
451.01
347.303
312.536
194.96
308.086
207.567
168.539
94.1719
171.163
94.2701
68.4219
11.1803
64.8787
12.4544
505.232
571.342
515.654
575.279
504.086
578.132
521.208
347.383
471.105
353.843
455.152
349.455
479.671
347.754
202.596
307.666
202.552
310.722
206.232
319.227
190.988
101.086
164.509
100.246
168.623
99.324
162.954
96.4424
355.561
459.146
363.938
480.264
349.918
514.496
201.894
308.702
214.516
317.594
190.052
176.32
379.233
461.548
368.447
514.855
341.599
499.973
338.431
214.534
276.143
210.837
313.781
177.619
296.051
185.394
352.149
437.6
339.618
501
333.032
482.001
316.167
206.685
255.667
200.961
290.68
196.667
274.684
173.117
314.032
1396.18
1401.78
303.091
1407.83
1401.76
182.638
1398.72
169.977
278.721
162.907
1394.76
1274.13
77.5425
133.62
61.0824
136.501
72.0933
1187.18
632.443
14.1925
43.7763
6.61404
49.6202
7.35267
610.4
13.5886
1394.02
1192.53
1395.94
1245.87
1397.32
1279.45
60.4138
1170.39
641.497
1172.74
628.755
1227.37
548.19
3.91454
614.856
605.47
17.4686
567.371
1.86745
1214.93
1390.86
1209.95
1397.53
1329.48
1393.89
1306.19
638.091
1199.88
637.347
1248.66
592.209
1271.76
562.596
4.00298
628.429
3.48101
583.904
6.74966
563.464
6.31302
1238.67
1389.88
1260.73
1392.01
1359.44
1386.36
1380.73
634.783
1222.49
625.147
1269.21
562.225
1270.15
562.845
10.4076
602.504
45.7023
511.883
570.658
0.21129
1271.2
1387.46
1262.53
1386.04
1296.35
1388.04
1318.67
657.882
1208.25
632.902
1260.73
449.828
1294.82
524.116
597.883
3.96334
539.951
438.969
1236.08
1385.78
1267.85
1388.9
1311.42
1388.62
1317.42
631.328
1211.9
656.202
1297.73
562.807
1244.16
602.646
14.0977
613.919
31.4443
554.832
588.481
4.96761
1248.15
1381.25
1257.11
1386.48
1234.52
1380.97
1204.2
627.074
1233.88
1237.57
590.596
1185.7
624.416
59.8548
2.81169
600.614
14.145
587.806
13.3521
1385.32
488.7
328.034
1391.35
1386.65
1369.9
1381.75
1265.33
284.009
174.257
1378.2
1213.19
1378.48
66.1761
136.149
75.8558
1186.66
624.932
132.257
66.4605
3.51382
50.2815
9.08845
601.967
24.7196
52.4675
6.03112
335.108
473.366
367.776
1367.86
523.08
343.51
180.384
279.265
207.42
163.748
276.229
205.292
87.2667
141.218
90.0812
144.453
70.6094
137.364
83.5755
383.502
481.735
393.594
527.995
348.252
526.444
355.97
217.92
296.685
224.722
300.62
194.272
328.801
198.341
392.162
498.111
372.504
546.098
356.692
526.33
230.572
326.364
219.228
330.679
192.001
195.623
370.288
482.311
363.502
512.871
369.045
490.53
366.562
218.783
321.649
217.328
330.345
197.041
325.652
211.091
524.679
606.085
533.259
629.493
502.006
355.361
482.164
364.078
480.927
361.468
215.161
321.351
214.123
323.759
213.958
98.9049
175.616
99.2945
179.965
95.2183
18.2269
52.3383
18.7252
69.7709
11.045
506.784
476.262
355.901
330.73
209.977
186.954
95.1236
75.5536
10.1416
575.054
492.106
467.387
551.484
504.691
429.145
364.657
447.936
344.144
431.136
366.816
294.854
226.234
323.981
211.629
296.749
233.654
161.24
104.231
190.828
95.6594
164.973
106.604
55.0723
19.9903
78.1253
6.96081
55.102
19.9713
355.057
465.521
358.315
441.832
379.241
444.261
381.526
223.432
312.463
203.331
295.844
230.905
296.134
229.327
357.528
448.925
380.643
449.597
377.697
201.855
292.541
226.283
287.909
221.413
522.139
326.735
481.635
355.363
488.958
340.968
302.555
173.891
302.872
201.139
296.869
189.354
586.031
1135.22
514.892
855.456
586.345
1280.08
1392.28
324.425
481.402
305.226
489.827
335.509
1395.98
1399.37
179.413
281.884
169.92
295.467
182.757
1395.54
80.3278
138.645
72.8885
145.479
78.8487
67.8571
14.5761
50.3845
12.5416
39.8664
14.1335
46.699
5.88009
301.708
1410.86
1402.76
1399.45
1398.95
1415.83
1405.16
162.065
1394.79
1252.55
1393.04
1270.53
1395.31
1239.78
69.1266
1191.56
633.993
1247.31
51.2663
1218.26
586.068
6.35752
609.595
5.74871
34.8145
2.26533
584.446
2.62333
1345.16
1398.26
1279.76
1397.28
1224.55
1397.17
1286.74
629.629
1238.14
587.317
1214.57
610.081
1283.56
521.814
7.84941
583.995
597.473
3.29313
536.719
55.7095
1304.15
1395.19
1297.26
1396.7
1330.07
1386.8
1275.15
563.68
1282.96
561.795
1288.68
514.991
1240.52
527.57
0.788874
588.346
-0.415739
532.112
600.269
1390
1381.34
1376.37
1378.44
1230.85
1343.65
1144.66
530.401
1270.87
561.644
1182.54
570.586
1048.68
621.119
-0.828198
551.127
0.0672922
561.565
513.956
156.497
1459.94
1465.4
1457.73
1501.53
1461.39
1478.71
1465.68
1407.6
1441.06
1409.97
1448.69
1372.6
1450.64
1391.12
1296.25
1385.37
1325.7
1348.04
1136.06
1371.29
1156.9
545.813
1297.73
420.826
1046.19
617.697
1059.58
652.489
525.852
505.113
147.323
570.718
86.9033
1310.74
1390.07
1270.45
1374.66
1179.35
1385.41
1291.73
544.339
1261.1
618.843
1089.94
634.982
1278.37
536.78
691.201
9.76806
562.19
74.8456
551.124
1343.86
1380.95
1208.46
1385.04
1360.14
1381.33
1259.68
619.63
1187.74
634.723
1281.17
510.108
1218.07
576.649
27.48
586.344
23.6995
543.919
568.876
43.4154
1388.78
1375.84
1380.85
1404.76
1390.71
1390.03
1382.31
1229.24
1377.48
1378.5
1254.9
1374.36
1188.15
630.995
62.1851
1207.44
603.631
1127.87
639.869
36.6097
49.4357
4.2572
569.061
51.8082
617.334
-1.57915
1356.31
940.475
638.781
1304.59
1369.74
1012.9
591.964
1383.29
527.006
340.707
1378.11
1380.65
512.766
333.145
151.872
293.761
186.638
1374.82
1162.81
295.003
184.987
67.6611
149.717
78.3792
1150.32
639.623
148.239
70.5733
6.98154
38.8353
13.8243
3.47763
37.0958
12.6061
337.524
551.39
520.407
348.23
524.927
360.855
187.501
186.449
299.569
191.16
312.807
200.521
517.115
363.152
519.703
366.348
483.398
394.679
334.915
199.334
315.818
204.121
302.409
228.412
372.652
485.5
370.079
472.005
399.241
468.461
397.879
209.985
325.673
215.82
307.279
235.104
307.791
236.982
546.836
627.078
507.024
589.44
546.001
606.875
501.336
381.148
470.163
359.678
458.841
383.583
464.474
362.515
235.247
324.522
218.38
305.357
241.814
325.734
224.9
103.721
183.764
96.901
167.667
108.542
190.126
104.05
19.3084
70.9093
11.0631
57.4654
19.7594
75.266
11.1053
501.747
617.605
491.707
353.778
470.899
355.084
211.618
333.833
217.839
94.3913
197.603
98.9535
8.70132
81.987
6.61478
351.324
323.113
215.636
191.006
98.4224
77.9066
8.30874
466.043
543.667
504.114
574.821
463.942
540.912
502.331
345.469
430.824
376.646
447.903
356.628
432.352
380.282
213.638
299.099
237.498
320.975
223.077
301.879
239.278
96.8979
163.731
111.05
185.952
103.041
163.561
112.419
7.93571
55.8446
19.6216
72.1934
11.4889
56.2008
19.7069
334.299
1396.37
1398.67
456.699
329.494
1400.23
1397.64
183.971
1394.84
287.201
184.171
1393.69
1230.49
79.758
63.7023
146.159
78.624
1230.34
65.8025
14.5268
45.4257
4.91127
39.9925
14.0665
43.2513
2.78785
1398.93
1418.35
1405.85
1407.39
1399.06
1419.47
1406.45
1262.9
1395.6
1272
1391.38
1244.81
1395.01
1259.1
60.5161
1219.5
618.769
1225.9
660.175
1199.24
656.999
1.32399
561.642
-0.423438
659.779
36.1374
1255.4
1397.15
1281.97
1397.67
1250.62
1397.7
1283.89
589.447
1283.14
544.219
1223.89
661.899
1291.29
529.093
444.294
11.922
684.116
39.9009
541.273
41.9152
1281.84
1379.69
1237.61
1396.35
1277.06
1377.73
1122.83
537.721
1189.68
573.098
1291.54
530.496
1056.25
647.194
6.14667
546.634
539.547
42.5279
532.233
124.93
1465.35
1511.46
1459.02
1497.33
1468.79
1482.2
1461.75
1398.29
1451.58
1364.1
1456.33
1382.84
1445.85
1352.99
1191.02
1328.66
1113.57
1346.73
1118.54
1280.92
1132.46
649.114
994.371
636.746
999.317
664.13
913.719
686.11
80.4486
446.147
274.624
525.063
158.103
472.886
319.23
1458.66
1490.4
1463.08
1480.5
1461.1
1503.89
1462.84
1367.55
1450.53
1384.53
1444.31
1352.88
1455.82
1352.82
1109.26
1355.31
1134.11
1285.79
1139.71
1282.26
1135.11
634.021
1061.79
644.802
913.041
695.667
909.499
693.931
273.735
521.431
148.52
492.585
334.081
485.43
329.774
1467.02
1466.56
1459.23
1500.39
1465.58
1474.21
1464.94
1389.44
1441.43
1407.6
1454.15
1375.46
1448.8
1405.87
1144.48
1381.97
1308.92
1334.05
1114.42
1376.31
1285.32
656.292
1281.22
537.975
982.973
647.188
1272.63
535.524
83.5287
537.709
524.55
181.18
539.095
-0.0569863
1298.08
1381.7
1260.84
1383.84
1303.6
1384.52
1264.08
534.418
1220.17
604.262
1276.22
534.815
1238.44
590.537
0.0506673
530.38
98.5173
535.353
-0.114164
564.505
3.38631
1253.03
1375.29
1139.91
1382.43
1243.43
1377.62
1237.75
608.478
1142.37
636.077
1225.81
597.055
1196.87
640.877
616.537
565.89
4.4349
615.467
18.0464
1381.03
502.763
338.241
1384.03
1382.69
497.356
325.14
1178.24
291.533
186.969
1377.1
1238.27
283.439
189.357
638.914
149.702
72.8155
1196.51
644.523
153.653
75.516
0.595297
47.9023
11.124
622.077
50.9824
10.462
364.464
485.234
375.143
488.576
332.732
487.294
376.546
207.792
290.855
215.489
276.575
208.434
287.85
215.502
543.769
606.018
499.341
580.434
541.968
602.261
499.02
394.009
463.145
363.855
456.594
395.904
460.476
379.109
242.823
326.427
226.268
310.574
244.713
308.352
241.849
115.975
190.906
106.156
169.557
118.773
175.719
120.116
21.0162
77.5439
10.7325
62.479
21.4867
66.834
21.3772
490.576
615.442
489.529
355.646
466.9
361.202
218.858
321.991
227.609
100.782
190.179
110.215
6.8357
78.9012
11.9858