/*--------------------------------*- C++ -*----------------------------------*\
| =========                 |                                                 |
| \\      /  F ield         | OpenFOAM: The Open Source CFD Toolbox           |
|  \\    /   O peration     | Version:  4.0                                   |
|   \\  /    A nd           | Web:      www.OpenFOAM.org                      |
|    \\/     M anipulation  |                                                 |
\*---------------------------------------------------------------------------*/
FoamFile
{
    version     2.0;
    format      ascii;
    class       volScalarField;
    location    "46";
    object      p;
}
// * * * * * * * * * * * * * * * * * * * * * * * * * * * * * * * * * * * * * //

dimensions      [0 2 -2 0 0 0 0];

internalField   nonuniform List<scalar> 
146404
(
-5.86608
-2.63007
-9.41904
-5.22085
-10.6413
-5.94597
-3.03874
-1.53644
-3.15685
-16.2246
-1.11056
-5.97298
-2.54037
-9.08397
-4.54683
-2.71884
-5.63059
-4.29781
-3.21897
-7.965
-6.14837
-9.47818
-6.58974
-3.35204
-4.17391
-6.24445
-9.9417
-7.87568
-3.49187
-0.284137
-7.29491
-16.3471
-9.59836
-2.85367
0.361405
-5.64956
-13.9158
-8.05221
-2.85807
5.46936
2.00938
-17.9384
-2.89577
4.39847
-4.05175
-13.4048
-7.96792
-3.19793
3.02774
-2.41955
-8.6122
-6.96451
-3.54435
1.8373
-1.30202
-7.02135
-6.17579
-3.02512
-0.464908
-0.749201
-6.24031
-4.93554
-2.80027
-0.468914
-5.93436
-1.99511
-0.435238
-6.68321
-15.4143
-8.93983
-4.01702
3.62684
-6.61738
-22.483
-12.8873
-4.25949
5.69678
-8.32807
-30.1274
-17.5588
-5.13445
7.99875
-5.82615
-23.8406
-13.6535
-5.79865
14.9501
-2.35161
-29.5025
-6.19866
13.0414
-6.64116
-24.9967
-16.7336
-6.55092
17.3782
-3.59946
-25.6692
-17.1176
-6.87434
11.2207
-0.409246
-14.969
-12.1203
-4.72689
7.65918
-1.76497
-12.1006
-7.29908
-3.48802
6.6599
0.0618106
-11.1964
-1.83765
1.5281
-8.1619
-4.24735
-2.24616
-4.40433
-6.98566
-11.3669
-6.8074
-2.42354
2.17012
-5.59865
-18.4579
-8.2802
-3.11115
9.72749
-0.969781
-26.7825
-7.48621
-4.94578
14.8927
-9.97098
-30.5561
-18.7892
-5.787
22.0086
-27.9737
-45.6725
-32.1498
-8.14367
35.7403
-33.4423
-54.1743
-26.5571
-10.2409
46.5749
5.92984
-54.0045
-11.2817
37.6161
-23.8279
-60.4714
-34.4101
-11.2419
28.6428
-23.5911
-54.3774
-33.3965
-10.8693
27.0429
-1.08058
-32.2499
-24.36
-8.61297
19.5029
6.37985
-25.9248
-12.1444
-5.8626
9.90704
0.510471
-14.0455
-8.95388
-4.01773
3.70121
0.431785
-6.55145
-6.05694
-3.22043
1.17762
-3.51648
-4.13583
-3.20664
-6.02638
-7.14252
-9.91919
-7.06476
-3.12556
0.433181
-7.68893
-18.848
-9.82765
-3.08958
6.5474
-8.22272
-25.0695
-15.6589
-5.22894
28.8439
-5.0389
-46.9297
-18.816
-7.26164
59.2884
-21.8764
-88.7721
-46.4226
-7.50064
103.318
-86.6229
-144.094
-66.2913
-12.1266
112.455
-112.42
-176.427
-63.2897
-20.6179
142.093
-134.173
-52.2342
-31.1871
118.188
-119.642
-180.946
-72.731
-26.1855
98.1529
-59.8282
-141.881
-80.8924
-26.6675
63.7204
1.20371
-100.306
-76.9902
-14.8726
36.3167
8.20057
-51.7351
-35.0339
-10.2114
15.6378
0.971486
-20.712
-15.5099
-5.25901
9.17853
-0.161037
-10.606
-8.95597
-3.61931
2.77289
1.61343
-5.26792
-5.99008
-3.16719
-8.90832
-7.12931
-10.3658
-5.98322
-3.02566
-0.667123
-9.15882
-14.2789
-9.90011
-3.47133
4.21437
-8.47499
-30.285
-13.41
-4.22397
17.8584
-23.5776
-73.6173
-21.9479
-5.33858
63.3586
-115.579
-131.318
-46.8481
-9.39437
148.154
-104.382
-159.148
-68.606
-14.287
314.093
438.572
-72.9994
-15.1822
384.592
437.38
438.92
414.008
388.229
434.205
438.146
433.907
311.475
375.279
433.694
437.307
425.134
308.854
431.641
-82.9944
-23.1804
181.919
-110.849
-29.7515
67.3859
-47.5909
-137.314
-70.6385
-14.1109
21.9433
-1.0914
-41.5685
-30.7192
-8.43793
13.6438
4.21801
-20.4924
-18.4231
-5.88008
7.62092
0.0659163
-8.90969
-7.96367
-4.19605
1.05225
0.718106
-5.91136
-4.50996
-2.88633
-1.01823
-5.79165
-16.9017
-4.33556
-1.98274
2.51215
-8.20645
-20.0581
-10.4447
-3.18825
11.4332
-9.60984
-35.1898
-17.3765
-6.21288
42.6605
-76.2818
-101.766
-33.4197
-8.4588
140.115
-82.5045
-160.552
-57.8389
-11.3958
378.656
441.024
441.547
-14.7312
416.448
434.039
437.698
409.618
304.985
417.641
430.541
435.085
441.61
333.058
416.289
429.078
435.125
427.375
284.984
412.307
428.544
433.268
418.235
333.573
393.527
428.865
434.141
402.452
297.438
348.625
434.655
436.218
426.709
-25.7893
166.04
-75.3091
-138.71
-85.5916
-32.7715
43.2403
-26.2671
-82.8254
-54.7851
-11.4489
22.2059
3.08345
-30.2229
-21.7303
-5.44508
12.0931
2.90266
-16.359
-11.2993
-3.28744
6.93221
1.81593
-12.8115
-3.38826
-2.22693
-0.850208
-6.4992
-14.9887
-7.05332
-3.19971
6.80418
-1.75347
-23.3817
-8.13526
-4.79946
27.5485
-23.4605
-8.91735
84.458
-77.5501
-130.01
-44.2062
-16.1786
307.372
-162.926
-56.8957
-16.5473
417.441
434.944
439.676
395.794
280.034
420.978
431.525
438.823
381.816
260.672
419.146
428.061
437.658
434.041
315.469
417.448
425.324
433.615
436.405
214.418
416.439
426.132
435.29
459.457
315.9
411.548
426.683
434.447
350.89
305.438
388.502
429.378
430.824
431.946
316.279
301.029
430.26
435.627
-84.5942
-34.8907
85.4843
-60.1361
-172.52
-77.8115
-15.9241
34.1567
68.5794
-71.9062
-8.07043
15.3055
7.76044
-22.9937
-12.1787
-4.24416
6.9169
0.837249
-10.2811
-6.29931
-3.24581
2.09331
-6.38709
-4.09278
-2.35384
-5.16602
-8.02195
-5.7175
-3.37622
0.79174
-6.50229
-16.3778
-9.33872
-3.10118
7.85897
-8.13585
-30.1708
-15.5228
-5.05275
29.3696
-27.6386
-52.7043
-28.5062
-8.46746
96.6793
-92.9628
-184.667
-57.2278
-18.5786
383.262
440.255
441.76
442.491
-20.2199
420.711
433.848
438.593
391.895
269.65
420.907
429.896
437.529
465.188
184.807
419.144
425.634
429.846
302.994
243.506
413.64
421.885
416.905
347.937
253.714
415.125
422.286
424.503
296.118
236.864
414.867
425.42
433.562
446.796
165.339
401.465
426.074
431.015
415.623
256.503
349.117
433.372
436.785
388.531
319.097
125.462
-71.2381
-158.155
-96.4647
-32.8733
25.7075
-2.85185
-49.5345
-26.2582
-9.18598
14.8418
0.636918
-17.2729
-14.066
-5.1791
8.06377
2.657
-8.84701
-8.39722
-3.87612
0.488838
2.00183
-3.61632
-4.38518
-3.06182
-11.7866
-5.15817
-7.80979
-5.70281
-3.55868
0.810654
-6.5973
-16.1649
-9.22628
-3.13798
7.92062
-8.25303
-30.4229
-15.9356
-5.13415
28.6766
-33.4728
-67.9388
-37.962
-8.86508
117.743
-67.2083
-152.387
-65.5721
-19.0851
389.182
441.074
440.915
424.102
421.175
434.581
439.184
444.399
343.051
421.608
430.276
445.439
452.145
211.526
416.808
425.834
420.001
342.224
272.893
412.41
421.551
408.275
344.132
263.84
411.857
421.915
414.859
344.697
258.775
416.214
426.014
432.199
460.698
215.938
405.131
426.909
432.176
445.853
255.757
355.957
432.97
435.49
418.309
324.956
138.94
-53.0531
-150.898
-89.8941
-31.563
23.6198
-7.32818
-45.5564
-31.9602
-9.98909
16.2556
0.453566
-20.0537
-14.9058
-5.44054
8.74823
2.55267
-9.27066
-8.88888
-4.16102
0.718053
2.04964
-3.83834
-4.67423
-3.61933
-5.01602
-7.75752
-5.39604
-3.28229
-1.05753
-5.11434
-12.5295
-8.27718
-2.99579
7.13853
-4.57091
-22.9178
-13.7099
-5.42765
33.0528
-13.5638
-48.2501
-29.5958
-9.92147
118.897
-99.9949
-172.745
-71.3125
-14.1476
376.924
439.942
441.756
415.964
-16.3977
418.931
435.024
438.744
428.818
276.477
422.579
432.195
442.261
444.58
210.522
420.954
427.776
432.788
330.373
240.712
417.524
424.426
421.828
340.625
267.916
418.939
425.304
429.723
335.299
257.457
415.694
428.731
437.135
444.275
142.221
402.05
430.307
433.487
355.271
264.862
339.883
437.399
436.97
426.665
325.327
106.585
-58.1466
-165.02
-99.0035
-15.1694
34.3329
-0.686275
-51.774
-36.9191
-8.1863
15.5887
3.77889
-18.5124
-15.8426
-4.41904
6.58092
1.33123
-8.6444
-7.69388
-3.92339
0.0891163
1.73546
-3.95003
-4.75308
-2.84693
0.945721
-4.91789
-14.277
-5.56006
-2.37375
8.84064
-3.06653
-23.0069
-3.68082
-4.41515
26.6597
-12.193
-7.26711
74.1155
-51.0447
-137.994
-59.7053
-13.1619
289.546
-160.745
-84.5445
-19.7829
400.185
436.738
439.861
442.773
295.728
419.209
433.617
439.174
435.153
226.996
421.416
431.963
437.781
448.6
335.74
421.085
433.634
450.77
449.389
231.832
417.803
430.566
437.057
435.22
259.414
411.245
430.526
434.888
376.017
258.809
387.819
435.143
434.51
376.018
302.589
293.409
435.127
437.876
-76.0465
-26.5136
63.3894
-65.4591
-143.989
-71.8804
-10.0601
24.8272
7.30781
-51.9117
-5.11567
12.0859
9.57095
-26.4185
-15.1095
-3.5456
5.53447
4.12728
-12.7157
-8.32709
-2.8608
1.07757
-7.31848
-4.72147
-2.55732
-2.01891
-6.38444
-15.8984
-5.73505
-2.3589
2.51823
-6.98111
-15.9928
-9.87341
-3.91787
10.1326
-7.55453
-32.296
-19.8929
-5.98382
34.3955
-36.2228
-81.7978
-39.9571
-8.85988
130.707
-59.4052
-136.235
-83.6116
-20.0201
334.807
442.537
443.208
-20.9647
396.204
437.68
439.264
433.911
268.047
408.871
433.814
438.108
451.403
254.828
410.861
433.63
442.763
362.163
176.688
405.807
433.025
436.556
445.77
263.974
387.762
436.275
435.317
407.252
294.59
340.375
438.214
438.363
347.083
-24.2298
93.0293
-113.154
-139.54
-77.2197
-9.80796
11.8896
-10.9569
-40.8446
-23.1003
-7.22832
5.98166
-5.86906
-29.4475
-19.0017
-5.13505
4.06865
-6.92589
-16.4027
-9.47572
-3.8873
1.47245
-3.58516
-15.7674
-5.13868
-2.42226
-9.87281
-5.79467
-9.06964
-5.78291
-3.33804
-1.94074
-6.11224
-10.5752
-7.91752
-3.62251
3.87138
-5.10138
-19.3336
-11.9743
-3.60045
17.8618
-8.59065
-32.6977
-24.8315
-7.45859
51.4378
-38.5097
-86.6152
-46.4344
-8.38871
122.924
-69.5763
-156.71
-82.3527
-20.992
283.499
439.673
-128.345
-64.2592
-23.5124
356.455
438.903
441.667
397.328
364.008
439.724
442.41
407.041
326.072
354.1
439.371
440.368
426.259
284.539
437.518
-63.4408
-19.5678
97.001
-68.636
-10.1647
35.3434
-34.7846
-68.4982
-37.8623
-7.33099
5.75728
-6.58149
-22.8305
-13.2044
-4.09302
0.564199
-7.13016
-14.4353
-8.98922
-3.33191
-1.27688
-5.5348
-10.8199
-7.73125
-3.44555
-4.95012
-4.82298
-8.99739
-5.87027
-3.09531
-5.87713
-5.22328
-8.15327
-6.16302
-2.82192
-0.423283
-4.70686
-12.5634
-7.66109
-2.84988
6.80692
-4.74898
-20.2244
-13.2931
-4.06583
23.447
1.38154
-41.1494
-19.2487
-5.68761
37.8967
-25.9183
-62.3741
-30.8566
-7.86275
52.0427
-92.7946
-106.75
-47.1697
-10.5061
73.8218
-148.377
-113.316
-47.1581
-15.3205
81.365
-147.413
-51.557
-16.7438
74.7232
-130.187
-132.427
-53.2426
-8.12847
48.0898
-87.8589
-107.168
-44.6868
-8.56083
30.7297
-19.0381
-69.6387
-36.6441
-6.56313
15.5294
-5.15578
-45.5679
-17.6405
-4.25849
4.01465
-5.48016
-19.1335
-12.6554
-3.42995
-1.0958
-5.83406
-12.029
-8.66477
-3.79528
-4.48059
-5.17215
-8.88078
-7.09356
-3.62203
-3.33086
-5.46009
-10.5046
-6.30119
-2.71203
3.12498
-3.63596
-17.2903
-8.12531
-3.01549
6.81598
-3.52201
-22.9369
-6.96399
-3.74509
6.64609
-5.54672
-22.1517
-12.982
-4.49625
8.9616
-8.52787
-29.2673
-16.0878
-5.04255
22.5761
-12.5149
-39.0069
-24.0792
-5.71847
28.6312
-22.3498
-33.1818
-5.80427
10.478
-17.7165
-43.9917
-15.7427
-5.19097
5.71255
-7.02424
-26.0307
-14.8201
-4.77605
7.55147
-6.64623
-24.1059
-16.6173
-4.30614
4.73386
-2.30436
-25.1323
-11.2632
-2.96915
0.592411
-3.76792
-17.68
-7.47611
-2.77329
-4.03373
-5.33127
-10.3344
-6.92636
-3.29786
-5.04005
-7.71682
-5.61326
-3.66163
-0.976886
0.318864
-1.71071
-1.05629
-5.02504
-11.3374
-6.57805
-3.04506
1.56407
-4.47464
-12.6583
-8.78323
-3.75668
1.88795
-5.64435
-15.3761
-8.49568
-2.69888
5.46774
-4.33206
-18.0479
-11.4345
-2.87804
9.22724
-6.75525
-13.4633
-2.98109
1.45113
-9.19342
-20.3998
-8.12834
-2.98737
2.30959
-6.37347
-13.7126
-8.19253
-3.0178
-1.13136
-6.51819
-13.3637
-9.07558
-3.77137
-2.66032
-6.46704
-12.8156
-7.37474
-3.05025
-1.63912
1.15128
-19.8807
-9.52858
-1.92573
-11.9196
-4.43
-2.38575
-8.36229
-4.60183
-7.9229
-4.69184
-2.82485
-4.65549
-4.56
-7.48972
-6.0941
-3.05502
-2.60148
-4.32188
-9.56956
-6.83695
-3.04064
-0.845989
-4.75823
-11.5821
-6.58097
-2.91834
2.30449
-6.79163
-7.80382
-2.82227
-1.93394
-7.81606
-12.7868
-7.15808
-3.03507
-4.85488
-6.92196
-10.0993
-7.37303
-3.28655
-6.1817
-6.32485
-9.44959
-7.22092
-3.57277
-8.30561
-5.97941
-9.27584
-6.0226
-3.13902
-9.41804
-4.00015
-8.65989
-5.09247
-2.60544
-6.71729
-7.10774
-2.83551
-1.48645
-10.0034
-6.20938
-11.4264
-5.85393
-2.83283
-5.77862
-3.51039
-9.05096
-9.53788
-6.94862
-5.98222
-3.56983
-3.06566
-0.13233
-6.60823
1.66634
-9.66076
-9.23506
-17.3288
-10.0094
-7.0992
-17.8066
-7.50809
-5.86395
-3.42088
-7.00634
-1.55059
-2.92943
-0.221847
-1.42157
-0.142995
-6.19771
12.0297
-0.896053
-3.37394
-2.07083
-8.99262
-9.36871
-5.78858
-17.8911
-1.47394
-4.23435
-2.75912
-1.34196
-0.0667729
-2.49209
-0.186072
-1.61671
-2.54116
-8.27579
-8.72934
-5.67469
-4.21568
-2.87372
-2.57741
-0.20133
-5.73222
-6.04146
-9.06112
-9.38394
-7.17099
-6.05824
-3.77257
-3.29882
-0.0594077
-11.8626
-5.83698
-7.42036
-5.69754
-6.09627
-8.84687
-6.049
-7.81869
-9.16097
-7.11804
-8.72841
-7.69279
-6.11333
-3.84903
-6.6685
-4.6032
-3.34439
-0.145257
-3.66993
-0.611172
-6.7199
-5.5218
-4.73703
-5.131
-5.93976
-7.82801
-5.86472
-8.51804
-8.71892
-8.04
-9.81476
-8.81939
-7.00794
-4.7041
-7.7542
-5.10856
-3.63146
-0.54114
-3.85984
-0.725941
-9.88325
-5.02558
-4.45527
-4.70368
-3.27143
-3.87363
-5.35259
-8.87878
-5.82433
-8.06258
-5.69414
-9.22035
-7.66099
-9.68417
-7.68603
-10.5029
-9.63834
-12.0086
-10.9022
-4.64507
-5.77142
-3.92468
-7.42492
-5.44434
-8.09976
-5.67494
-3.1586
-0.293729
-3.2997
-1.19561
-3.24838
-1.14416
-4.69017
-2.49334
1.75863
-1.9036
-2.57389
0.972534
2.34803
-9.95715
-6.00625
-17.659
-5.91522
-10.0942
-10.5154
-20.9
-7.99179
-17.9918
-8.98632
-11.9753
-9.85093
-21.7408
-11.4995
-3.85204
-3.30991
-2.12013
-6.50718
-5.1947
-3.8214
-2.04639
-0.561177
-1.66768
-0.509892
-3.30847
-1.3519
-2.10216
-1.03122
7.21176
-5.58972
-0.758862
3.24067
12.099
1.64078
0.907453
-2.37392
-8.73702
1.3631
-1.99269
-9.95517
-9.35871
-6.43129
-13.4647
-10.799
-9.36272
-1.53618
-4.15043
-2.91384
-17.276
-3.24496
-6.86509
-4.0197
-0.358698
-2.39295
-0.31759
-2.70977
-1.1522
-2.97266
-1.33038
-1.70329
-1.64373
0.912638
-0.31626
0.360092
-0.682601
-8.25484
-1.85702
-5.44716
-3.34467
-7.99951
-3.26758
-6.11451
-6.70796
-6.00685
-5.18355
-10.7285
-9.66522
-8.25938
-7.51479
-3.25031
-4.4084
-3.21668
-5.97089
-4.0679
-6.21924
-4.63104
-0.45439
-2.87916
-0.143032
-2.84633
-1.21847
-3.07395
-1.27762
0.642081
-0.262455
-0.216169
-0.11861
-5.00708
-2.05071
-4.25912
-1.12785
-4.44081
-4.92925
-6.77079
-7.07164
-5.8517
-6.29056
-3.29991
-5.73673
-4.44089
-5.69898
-4.11605
-0.0923208
-2.83176
-1.15652
-3.26931
-0.608584
-0.573716
-0.188476
-2.3995
-0.164162
-1.0991
-4.2629
-0.629095
-4.08807
-5.62822
-5.94242
-5.47223
-5.37342
-5.45123
-3.88352
-4.45991
-3.3979
-3.15541
-0.570503
-2.77799
-0.513132
-3.05259
-0.122923
-0.564496
-4.99169
-5.64338
-5.23958
-4.62508
-3.23196
-2.87837
-0.341297
-4.81242
15.6205
-2.97216
-2.31758
-1.84358
-0.328629
-10.1009
-5.62788
-3.32635
0.478188
-3.62319
-3.55449
-5.95482
-9.57086
-10.0494
-6.94965
-11.9196
-10.0005
-7.98793
-11.5938
-13.3115
-11.0433
-6.05751
-3.81136
-0.318054
-2.97422
-6.31832
-3.9193
-2.98278
-0.399508
-2.24845
-0.470594
-2.57486
-1.01748
-5.49542
-5.25845
-5.01156
-3.46118
-3.54393
-2.51717
-3.55453
-8.90251
-6.25755
-8.18873
-6.57224
-10.6232
-6.42017
-10.0928
-8.06835
-9.78275
-9.4868
-12.4491
-11.2594
-12.4745
-11.4811
-4.28401
-7.15169
-5.43451
-7.7556
-5.3659
-8.63816
-6.12297
-0.478347
-3.09561
-1.1955
-3.3967
-1.42915
-3.62725
-1.44348
-11.2966
-10.0772
-21.6382
-5.82783
-14.4051
-3.43141
-29.8752
-11.8583
-22.7251
-12.3353
-17.7827
-15.199
-30.59
-18.5121
-1.84692
-11.213
-2.45868
-0.887221
-16.1321
-14.5967
-12.106
-10.7812
-21.2563
-17.9783
-16.1599
1.31899
-0.0952815
0.392314
5.949
3.22343
4.48209
3.30668
0.486903
3.91478
3.1928
4.84593
5.96075
-5.07053
-1.55721
-7.18984
1.46858
-13.7273
-6.00897
-10.0109
-9.03644
-14.0719
-8.09987
-3.40876
-6.12452
-4.01737
-3.69184
-3.54381
-0.513429
-2.72961
-1.18791
-2.41941
-0.518871
4.66611
8.83364
3.78411
-15.593
1.63389
-9.15067
-16.0043
-8.86887
-10.0622
-6.01505
-6.93192
-1.66198
-4.18572
-1.68478
-1.4363
-0.435387
-1.62658
-0.293755
-7.78111
-6.06284
-6.76032
-9.27265
-10.0052
-7.75128
-6.14242
-3.73761
-2.87987
-0.499652
-3.07584
2.20522
-6.18721
-5.45759
-2.38345
-2.90554
24.1607
-7.03102
-9.88736
-6.25343
-14.9166
-33.9421
-11.1258
-9.38566
-15.4865
-10.2496
1.17127
-2.81615
-5.68999
-3.9225
-5.55865
-3.81648
-2.10412
-0.535546
-2.46175
-0.938753
-2.49863
-1.03374
-5.7069
-15.1249
-5.31456
-17.9509
-2.68911
-27.1255
-15.7954
-11.7617
-18.2429
-10.1649
-25.6882
-16.0117
-19.5524
-3.57217
-32.0243
-11.6092
-30.8072
-6.70958
-60.2472
-20.8657
-32.6431
-21.3528
-35.8565
-30.2414
-53.5873
-39.7879
-1.21224
-19.5603
3.881
-1.72517
-36.5254
-23.89
-21.5674
-20.0215
-43.976
-39.6573
-33.3307
-10.5246
2.54982
-14.9814
4.73455
-18.908
6.5797
-16.9545
-11.1362
-15.2445
-8.81002
-21.8605
-18.3018
-18.1361
-13.1755
11.0041
-1.43358
3.21274
7.94855
8.20893
4.77577
4.37674
1.52291
-8.07239
3.83358
-12.168
0.497671
-5.56474
-9.51139
-9.80746
-6.82068
-15.2576
-12.1096
-9.29347
-8.77296
-2.25923
-4.06917
-2.46365
-7.73496
-4.03417
-5.80528
-4.26916
-0.90878
-1.93706
-0.476706
-2.95266
-1.26219
-3.07283
-1.37963
2.85528
2.9885
2.57654
1.47666
-7.19311
1.04702
-4.84584
1.05835
-2.96878
-5.82866
-6.71202
-6.74467
-3.76605
-4.81234
-2.59696
-5.90893
-3.84224
-4.17066
-3.63937
-0.272658
-3.20556
-0.643514
-3.24636
-0.222267
-10.0392
-6.92345
-6.84323
-8.18758
-8.6462
-7.14818
-6.04601
-4.17818
-3.32271
-0.450846
-6.80418
-5.99513
-8.23665
-6.70369
-5.1817
-5.6329
-7.02546
-8.46306
-6.97861
-8.52419
-7.20885
-9.36167
-9.78576
-8.75014
-8.92427
-7.70676
-10.7674
-9.74221
-6.26796
-4.643
-6.4914
-4.27393
-7.18951
-5.19587
-2.80141
-1.09496
-3.23303
-0.500492
-3.00063
-1.18024
-18.3312
-5.47818
-31.1114
-7.24864
-17.7023
-3.14507
-32.0609
-13.0307
-27.6227
-21.4336
-21.0711
-18.1757
-33.549
-23.914
-28.2755
-8.78306
-26.0274
0.441462
-40.537
-7.10921
-52.8981
-16.921
-27.6974
-25.9391
-40.52
-24.9605
-60.1291
-43.4975
-52.7871
-6.02513
-70.1445
-125.362
-163.225
-110.932
-177.82
-43.6854
-61.4576
-46.5128
-112.848
-69.5244
-165.373
-55.8957
-8.24851
-49.4386
-72.9016
-96.1663
-172.453
-49.9972
-52.3193
-43.4053
-55.3436
-149.549
-70.9194
-21.1316
4.96333
-22.8598
5.49033
-60.8767
47.2294
-32.5784
-26.6616
-25.0345
-77.8818
-72.8616
-58.6665
-23.8665
5.08773
-16.2894
17.3435
-47.4958
5.17698
-16.8028
-19.5988
-19.3609
-15.6896
-46.0186
-46.0234
-21.5023
-23.2222
3.5761
-3.58656
1.83765
5.95743
4.28282
3.15871
2.88267
-3.13558
0.974986
-2.39958
1.14682
-3.73221
1.36305
-1.68064
-7.34567
-4.09776
-5.13408
-8.18261
-8.84005
-5.75868
-6.81518
-4.66109
-4.34644
-3.78393
-8.07295
-5.91464
-6.47061
-5.3595
-1.45266
-3.18346
-0.567128
-3.97393
-1.81268
-3.47086
-1.54838
1.46554
1.61398
1.98959
-2.66183
1.35717
-2.47558
-4.63614
-4.62249
-5.68659
-3.64248
-5.58915
-4.12733
-0.285068
-3.3488
-0.692528
-7.38597
-9.62692
-9.77245
-6.5897
-6.05807
-3.36015
-3.08738
0.226832
-8.70242
-6.82298
-12.4486
-6.87619
-5.3869
-6.32045
-6.9885
-8.41825
-7.11391
-9.48292
-7.49554
-9.08196
-8.88129
-7.70522
-9.62278
-6.68816
-10.129
-9.08483
-6.4568
-4.16724
-6.02333
-3.39996
-6.65994
-4.71288
-3.21244
-0.477907
-3.02259
0.0194743
-2.73646
-1.0168
-46.468
-8.68159
-70.6335
-39.7314
-85.3371
-91.064
-167.67
-32.2797
-72.5495
-61.8108
-83.6141
-54.8659
-161.076
-92.0356
-86.8915
-94.3051
-137.182
-6.28112
-92.5036
-147.764
-73.1151
-140.921
-111.682
-103.877
-154.33
-102.069
-144.018
-93.1144
-185.134
-145.336
437.454
440.245
-111.758
-173.734
-89.5526
-145.423
-92.5542
439.615
-29.77
-63.0066
-34.1841
-68.635
-24.3751
-24.4817
-3.43804
-15.6674
-4.77495
-16.7389
-3.85972
-15.4727
-1.78981
-99.6207
139.832
-185.393
337.334
433.188
348.797
428.907
-192.312
-176.546
-181.632
438.911
440.102
436.345
438.98
-79.5024
-175.743
-52.2857
439.406
390.817
438.512
369.215
-40.0791
-51.5772
-40.9663
421.622
-24.1437
445.507
-6.44483
-29.3556
-7.1569
-19.2989
-2.16587
-0.958064
-144.139
123.526
-147.106
349.166
429.282
342.084
427.583
-141.891
-193.116
436.003
438.224
435.663
438.037
-52.4135
-175.408
-77.9119
437.97
404.561
437.576
362.682
-39.6479
-62.0227
-43.9321
431.011
408.184
-32.1181
-9.26742
-24.2247
-8.66978
-0.837435
-26.9985
-3.00859
-193.628
-62.9919
-159.572
435.611
438.186
433.783
-92.7858
-160.579
-115.347
437.737
388.093
-96.6227
-42.9814
-75.2938
-47.1046
419.363
-32.5538
-84.1985
-39.2532
-8.62484
-26.194
-6.713
-27.4102
-3.85045
-25.3663
-2.95739
-117.159
-56.4961
-108.015
-123.617
-56.267
-103.925
-129.522
-135.965
-127.163
-126.045
-103.376
-113.829
-124.873
41.5964
52.2993
40.1526
109.216
20.6904
74.7082
27.9911
-81.9905
21.6731
-65.5287
-17.6135
-101.925
-95.8552
-60.1151
-65.3822
-124.544
-128.509
-42.1595
-59.3079
-32.9784
-115.492
-59.343
-97.3311
-48.9177
-40.3689
2.44513
-19.5195
-17.7664
-54.0762
-3.36807
-31.8987
-51.457
-29.1826
-34.964
-83.9119
-87.4733
-44.8475
-53.3284
2.26528
4.84228
3.34923
1.6274
2.09363
-1.37015
1.16615
-2.6671
1.01382
-3.38659
-6.15998
-6.69074
-7.3164
-4.97146
-5.57932
-4.71071
-6.63094
-5.09744
-4.78744
-3.52444
-1.37593
-3.28473
-1.41289
-2.87308
-0.573392
0.402883
1.71437
1.11816
-3.9143
-4.80095
-5.06185
-4.07542
-3.27138
-3.01398
-0.308542
-13.0953
-7.41712
-5.44678
-3.2685
-7.647
-10.0589
-7.85904
-14.8651
-10.1429
-6.42756
-14.8679
-7.81959
-5.7773
-2.92275
-4.0874
-2.65595
-3.70462
0.0962909
-2.04358
-0.42963
-6.48938
-4.34797
-5.4139
-4.08903
-4.56605
-2.10279
-4.16136
-10.2284
-8.05532
-10.6486
-8.624
-13.545
-8.76739
-13.121
-7.76314
-11.9597
-10.5504
-13.5356
-10.3364
-14.3005
-12.0226
-3.67515
-7.46792
-5.17794
-4.92883
-3.56508
-7.0087
-4.64059
-0.382542
-3.02493
-1.17152
-2.29454
-0.932367
-2.90177
-1.1893
-166.545
-119.769
-170.506
-73.2417
-197.044
441.737
-83.1935
-161.81
-89.9001
-158.662
-94.7384
-76.5729
-165.296
-151.905
441.7
442.298
435.676
440.036
-91.563
-156.624
-87.0358
442.121
-72.9401
438.328
378.556
-25.5646
-73.4307
-25.8938
-56.111
-21.2367
427.358
320.061
-4.22532
-16.3913
-1.94965
-14.3469
-1.53931
317.394
437.172
440.032
436.339
438.893
433.605
436.991
-86.3383
439.312
464.545
436.977
408.988
436.054
417.938
-23.7628
427.862
409.599
316.878
421.319
348.24
-1.46953
-13.5757
-0.240707
319.19
19.5825
277.754
7.90918
439.463
434.983
437.15
430.843
435.654
429.974
434.279
405.566
438.544
347.369
435.735
415.51
434.873
445.172
452.926
356.487
443.003
312.839
447.461
247.34
-0.207976
334.136
0.335544
246.226
3.5468
303.787
0.763008
436.565
434.77
437.611
429.395
433.662
428.69
433.238
407.512
436.804
394.264
434.765
437.269
432.84
478.032
326.986
414.161
327.162
427.737
297.499
373.937
293.557
0.20349
-0.840945
297.199
297.632
5.75031
437.783
433.493
437.722
429.532
433.868
431.645
434.958
376.57
437.082
-94.7464
433.396
417.845
432.969
380.131
-81.075
-32.6763
355.338
223.177
414.28
279.229
-0.972242
-24.953
-2.63866
238.103
6.43082
316.358
-2.33971
437.449
-61.9773
429.54
435.412
434.986
436.734
-96.948
-121.732
434.872
553.579
435.898
413.976
-34.3254
-109.108
-44.5415
407.441
326.182
399.228
-35.2112
-3.88462
-34.8672
-7.4076
306.387
-14.4246
-25.9541
-2.85502
-86.1505
-112.196
432.598
436.892
-67.2875
-119.702
-145.109
-150.503
436.372
413.341
-130.669
-128.602
-54.174
-109.799
-63.3823
-38.4606
-95.7972
-68.1751
2.15653
5.39272
4.62967
-4.34674
1.07148
-9.87101
-5.5151
-10.8594
-7.12208
-3.35095
-4.06021
-2.41332
-0.528286
-2.28684
-0.53511
-3.66249
-2.30472
-2.34895
-1.03654
-7.15017
-17.208
-3.6267
-14.7928
-16.5742
-5.89244
-15.3079
-10.6395
-1.22454
-2.40289
-6.58089
-3.10083
-1.70449
-0.478602
-2.4315
-0.503039
-1.2585
0.478238
-2.52664
0.397872
0.0830568
3.19155
3.04007
-17.0291
-7.24238
-18.5698
-3.40573
-15.2898
-4.34475
-23.2699
-7.61744
-18.567
-12.9564
-15.9859
-11.9679
-24.4176
-8.61506
-3.264
-9.61892
-3.89991
-8.7478
-3.42672
-2.50094
-4.99024
-19.5369
-9.56112
-25.2809
-6.22399
-25.3461
-10.4606
-15.4088
-27.9533
-22.6756
-26.1225
-9.30551
-33.4914
-29.5517
-25.6816
-46.3687
-11.0289
-52.8857
-34.7931
-103.879
-31.7206
-50.9238
-40.9638
-48.5585
-39.7476
-99.3314
-53.6303
-123.41
-127.13
-181.334
-70.4093
-136.767
-130.657
-184.621
-63.6142
-165.414
-95.1269
-126.307
-79.2864
-163.259
-81.8519
-174.801
441.774
442.643
-178.241
436.997
441.28
-80.5953
442.329
-72.2561
-165.258
-68.4082
440.596
462.558
-23.8553
-56.673
-20.9094
-50.5624
-22.5347
410.116
299.338
-3.51495
-14.2031
-1.70677
-15.874
-3.53133
312.649
1.64731
439.347
420.46
439.993
374.241
439.658
386.103
-20.1182
436.823
317.313
355.136
276.828
382.394
155.536
-1.19199
306.818
309.379
-7.38074
285.097
-0.437172
426.315
436.318
363.076
439.655
413.252
437.04
459.526
312.095
420.272
302.064
423.801
270.946
443.357
248.368
2.94729
336.102
7.47195
287.791
-1.60432
228.585
-75.6166
416.916
434.952
443.013
435.706
563.134
434.624
626.145
320.521
446.111
222.573
429.316
249.711
435.691
284.005
0.0747003
304.569
3.39269
113.851
276.011
-37.6192
433.094
432.904
419.055
435.576
471.598
434.989
431.631
273.067
367.125
305.625
431.529
9.95846
440.453
196.844
268.622
0.849339
196.851
-73.6824
377.761
433.689
444.635
434.579
450.376
434.329
423.643
275.72
426.146
299.113
454.539
234.863
390.954
234.626
3.70913
338.784
-2.12675
167.314
270.505
-2.97471
413.459
435.952
411.726
433.928
213.914
432.275
412.778
294.389
420.295
404.474
153.652
433.307
287.291
-24.8797
-0.286455
276.929
-0.656226
257.817
4.39269
436.986
-66.2043
-127.267
433.218
433.069
431.409
436.774
422.973
-135.203
-116.929
432.773
413.518
435.578
-35.9152
-92.9619
-51.7194
433.78
287.6
-86.9292
-42.4788
-2.68106
-35.9673
-2.97308
318.192
-0.705124
-35.7911
-1.56899
-127.614
-88.2618
-156.671
430.5
-84.1046
-189.641
-128.364
-165.036
-128.231
-99.5799
-189.341
-120.719
-57.2246
-86.0759
-58.0996
-87.7441
-47.4163
-80.6519
-57.5992
-64.6976
-3.77869
-31.2783
-59.7022
-154.014
6.71788
-59.3463
-75.9091
-44.4687
-47.3055
-142.981
-89.2103
-57.9725
-54.1514
-18.5249
1.61373
-15.206
16.4237
-51.102
10.1831
-28.5463
-17.7857
-16.9918
-50.7341
-42.6119
-25.891
-13.9888
4.40785
-11.5788
4.96935
-28.7713
6.61556
-13.68
-14.8303
-12.3034
-8.8705
-26.5724
-21.389
-16.22
-11.5939
7.03654
7.77076
8.06817
0.230217
4.19766
-12.8281
5.08636
-10.3497
2.7352
-6.7013
-8.09052
-12.6595
-10.357
-8.44521
-6.31701
-1.83964
-7.37444
-2.24481
-3.81863
-2.35925
-1.10531
-2.06849
-0.998433
-1.93859
-0.519532
3.88847
2.58166
-6.22504
-7.18004
-5.48802
-3.9601
-2.59707
-2.23647
-0.34746
-2.84721
-2.99278
-5.08052
-4.02762
-4.12518
-6.45721
-10.2933
-5.10051
-7.7722
-5.85636
-8.68049
-11.8538
-9.9438
-8.25373
-6.45404
-10.8123
-9.6096
-5.75357
-3.69147
-5.68922
-3.79114
-6.69554
-4.67432
-2.4315
-1.0095
-3.29524
0.0708776
-2.94166
-1.20451
-14.4117
-3.89126
-18.7971
-5.2244
-9.68649
-5.61767
-12.1618
-12.5767
-19.4971
-12.7592
-12.9437
-12.0934
-16.6621
-14.4592
-22.0666
-4.35881
-16.194
-8.4029
-25.4312
-13.2692
-22.1718
-20.0407
-30.499
-25.8152
-34.7652
-115.227
-12.4218
-44.4981
-65.323
-144.189
-109.144
-47.9665
-46.2979
-36.7235
-127.176
-63.7514
-31.0605
234.597
-130.725
112.591
-79.3128
313.818
436.586
-140.158
-136.041
-179.104
-109.663
-178.076
440.208
442.654
-62.0565
-170.184
-79.5147
-165.649
-67.3265
442.203
-32.4386
-54.1545
-23.7082
-56.293
-37.1475
-29.011
-4.95058
-18.0013
-7.04044
-15.8231
-5.39693
-20.1067
-3.83036
-176.746
438.89
440.43
440.674
442.422
436.968
439.653
-70.4196
440.17
405.728
441.655
424.958
438.83
424.966
-21.3524
409.282
297.831
434.189
-25.18
431.392
223.936
-3.35317
299.61
11.0652
-20.1832
-3.23335
277.454
0.961913
560.554
438.33
429.085
438.802
360.681
438.303
363.803
271.93
416.476
254.813
419.708
284.682
448.512
79.4925
0.866005
316.814
316.289
3.60177
238.083
-103.741
386.483
440.172
422.173
438.565
441.832
433.233
498.661
197.405
443.52
256.985
440.565
159.238
412.657
167.065
0.110534
380.597
-35.2018
207.615
338.674
587.426
433.773
600.166
430.845
445.404
423.913
378.91
209.518
437.301
215.017
354.083
167.819
342.299
267.235
-35.4521
236.259
-35.6958
234.809
263.887
482.599
420.537
416.487
419.951
415.249
419.838
416.036
418.377
432.101
425.331
432.459
422.541
422.901
422.885
426.06
478.335
434.289
498.712
423.717
379.159
424.689
359.58
180.569
457.993
73.6785
342.836
268.108
280.025
254.342
172.245
263.555
448.355
250.413
685.923
460.67
435.97
214.313
428.448
398.167
432.055
432.596
212.362
400.508
211.202
273.225
202.687
445.305
237.784
388.719
-4.7554
221.439
649.657
258.127
386.114
431.422
413.845
432.79
556.224
431.549
404.715
189.495
430.538
328.855
444.161
233.361
429.466
205.369
-28.5206
284.962
2.11908
308.187
236.362
-3.72243
432.749
434.31
436.361
427.764
431.66
433.5
435.167
442.263
435.364
431.07
447.492
434.337
361.916
304.88
-41.4079
427.912
234.399
346.089
299.428
-6.53251
-34.7522
-1.09679
261.608
-25.8904
301.615
1.9601
419.512
168.337
-21.0009
332.183
421.779
187.474
-77.0616
436.43
-113.073
-189.468
435.228
436.887
-85.5188
-152.3
-93.8957
-187.101
-98.8666
435.658
329.022
-156.459
-115.139
-44.8406
-84.2193
-53.4144
392.193
305.033
-93.5819
-52.6754
-2.00362
-31.3653
-7.52953
0.0853124
-33.5857
-8.20947
-175.998
28.3166
-66.0413
-142.757
2.46456
-75.5614
-92.3158
-59.7009
-158.197
-131.607
-89.8741
-73.1906
9.14162
-27.9822
8.66352
-44.9477
1.62707
-17.3056
-27.3587
-23.5204
-52.7429
-49.6513
-27.117
-29.1369
-18.8286
3.49277
-11.375
3.18067
-9.10747
2.4667
-6.23492
-18.3483
-13.5412
-12.0036
-17.5685
-18.3344
-12.7046
-13.5006
5.90328
0.337243
3.83399
7.00454
5.39706
2.52475
2.93376
-6.23993
1.73947
-5.71179
1.56517
-4.25221
1.72053
-2.84802
-9.62877
-7.27855
-6.29449
-8.64484
-8.97964
-4.65782
-5.64211
-4.39828
-4.55529
-2.98445
-7.32763
-5.17866
-4.91093
-3.70618
-1.5606
-2.36017
-0.551653
-3.48701
-1.57372
-3.0641
-0.621365
3.2589
-0.303714
2.53344
-5.49481
1.95377
-2.89769
-5.2496
-3.85683
-4.76473
-2.72265
-4.36659
-3.35736
-0.373385
-2.98178
-0.347444
-6.91778
-7.63024
-6.09288
-5.39883
-3.96148
-3.51069
0.152181
-5.13497
-3.47175
-4.04486
-11.7635
-5.19801
-3.22941
-3.94391
-7.52545
-5.33653
-8.00941
-5.16393
-7.02188
-5.19516
-7.66257
-6.5143
-10.6635
-9.66805
-7.91333
-6.82296
-10.4608
-9.60836
-3.86833
-7.26155
-5.18008
-5.7806
-4.29119
-7.47854
-5.47018
0.0302863
-3.15777
-1.27169
-3.47881
-0.495439
-3.33587
-1.34794
-193.135
440.958
442.577
-65.0672
-163.351
441.843
442.154
-74.4269
442.063
-155.054
-92.2032
441.659
434.083
-33.2473
-28.1299
-68.8484
-29.2319
439.567
-23.5358
-5.94018