/*--------------------------------*- C++ -*----------------------------------*\
| =========                 |                                                 |
| \\      /  F ield         | OpenFOAM: The Open Source CFD Toolbox           |
|  \\    /   O peration     | Version:  4.0                                   |
|   \\  /    A nd           | Web:      www.OpenFOAM.org                      |
|    \\/     M anipulation  |                                                 |
\*---------------------------------------------------------------------------*/
FoamFile
{
    version     2.0;
    format      ascii;
    class       volScalarField;
    location    "97";
    object      p;
}
// * * * * * * * * * * * * * * * * * * * * * * * * * * * * * * * * * * * * * //

dimensions      [0 2 -2 0 0 0 0];

internalField   nonuniform List<scalar> 
146404
(
-7.98516
-3.85248
-10.1057
-6.10031
-12.5455
-8.01149
-4.01748
-2.15072
-6.79226
-21.9626
-2.38149
-6.54774
-3.29991
-10.5665
-6.49108
-3.5026
-6.95045
-6.17062
-4.12889
-9.48624
-7.60149
-11.382
-8.67343
-4.36227
-5.03359
-7.27536
-11.7761
-10.7018
-4.9091
-0.753021
-7.31203
-18.8555
-14.6282
-4.79227
0.0732538
-6.47254
-15.9172
-11.7322
-4.7068
5.35719
-0.807236
-21.4428
-4.33183
4.29678
-5.01831
-15.5195
-11.7519
-4.98396
2.74235
-3.26726
-10.1451
-9.64043
-4.96141
1.75179
-1.79121
-8.16795
-7.93273
-4.08691
-0.0172702
-0.982221
-6.96517
-5.6519
-3.21656
-3.54181
-8.75721
-3.20542
-2.04292
-8.00678
-17.8312
-12.5019
-5.84472
3.61145
-8.04838
-25.5063
-20.5559
-8.13335
6.86128
-11.4311
-33.6204
-27.7471
-9.33814
9.19683
-6.96368
-26.2498
-21.6575
-10.763
16.2145
-5.87793
-37.7142
-10.4995
13.6315
-7.36668
-27.2331
-25.5058
-11.823
17.3138
-5.06907
-26.4366
-24.2625
-12.2393
11.4158
-0.571001
-16.0571
-16.0789
-7.73294
9.69102
-2.64303
-12.7942
-7.68119
-4.55668
11.8252
-10.5425
-7.73209
-1.42528
9.87707
-1.92044
-1.51505
-1.16738
-9.05315
-12.0132
-15.9853
-10.5833
-4.12979
-2.06381
-11.402
-23.9397
-12.8208
-5.66836
7.53408
-0.774035
-29.9032
-13.2573
-10.4618
14.7801
-11.2232
-36.7613
-33.4111
-12.7598
26.2033
-29.9263
-58.4417
-64.7094
-13.8666
39.7166
-30.0887
-74.2142
-55.0937
-13.5128
51.0615
6.56375
-102.464
-14.0179
40.468
-22.5895
-75.5145
-58.3959
-18.4327
32.2298
-17.8996
-58.0239
-58.2114
-22.0211
28.972
-1.96775
-34.6149
-38.2371
-16.1671
24.8975
3.9318
-27.5723
-11.6835
-8.98985
18.191
10.4883
-8.40077
-8.36271
-4.99294
12.5473
9.15727
-0.206386
-3.14771
-2.50584
9.94183
3.58681
-0.172155
-1.54596
-10.9426
-12.0061
-14.4161
-10.577
-4.4853
-4.56667
-13.484
-25.6576
-15.6562
-5.25599
1.45829
-15.3133
-33.638
-24.8965
-8.70484
24.812
-14.1767
-57.3639
-28.5133
-12.1216
60.2292
-19.5501
-99.009
-114.996
-21.5237
106.325
-74.0625
-160.148
-152.064
-32.4651
120.73
-90.5645
-155.667
-156.763
-36.9445
152.43
-62.8078
-142.327
-31.011
120.952
-104.383
-157.349
-155.446
-46.2327
99.339
-72.26
-138.578
-178.246
-57.1224
68.8018
-1.22741
-91.1363
-153.142
-42.0659
46.4364
25.8276
-41.2596
-59.6139
-23.4633
28.1552
11.67
-15.9318
-21.3966
-11.3219
19.4234
10.01
-3.54539
-7.97528
-4.29399
12.7943
10.8895
2.36439
-3.05199
-2.53773
-13.6227
-11.9654
-14.7863
-9.11618
-4.1181
-5.8287
-14.3216
-19.4069
-14.8541
-5.30177
-1.01192
-15.6184
-38.3223
-24.9219
-8.04045
12.3324
-30.2037
-87.5403
-48.8882
-12.853
58.875
-115.587
-173.144
-129.861
-17.0369
144.618
-98.1947
-156.758
-171.255
-27.8185
313.591
436.703
-135.762
-21.5916
383.981
434.95
436.285
411.243
387.246
432.012
435.726
429.575
305.328
373.384
431.451
435.176
422.985
307.179
430.651
-150.825
-45.208
186.198
-107.298
-72.5401
83.9265
-10.8074
-67.637
-131.17
-48.2569
39.6745
9.23423
-42.0425
-59.674
-22.8732
26.4399
17.0855
-10.9294
-19.4692
-8.34844
18.8141
10.4601
-1.53829
-5.54986
-4.45483
11.1252
10.2732
1.42588
-0.645601
-1.52712
-5.01473
-11.135
-21.5926
-7.47318
-3.09427
-2.10149
-14.2006
-25.9889
-15.097
-5.27283
5.98438
-18.9893
-44.0106
-29.3418
-8.8821
36.9096
-74.1576
-123.912
-65.881
-14.2439
123.121
-155.379
-207.323
-136.062
-18.1967
374.821
438.154
439.024
-14.765
413.856
431.505
435.172
406.322
304.222
415.18
428.028
432.62
438.489
331.246
413.962
426.618
432.83
425.59
283.625
410.396
426.441
431.262
417.111
331.86
392.45
426.938
432.091
399.896
294.194
351.333
432.906
433.677
424.61
-57.4443
185.994
-21.5865
-64.1924
-132.652
-80.3706
67.3274
4.49155
-69.3968
-120.539
-41.6548
38.0993
18.441
-21.8075
-29.4432
-14.5524
23.7779
14.7806
-8.67037
-9.68345
-5.2347
16.7805
12.3207
-5.73838
0.34857
-1.87096
-3.5059
-8.4322
-17.8979
-10.4855
-4.79027
4.13328
-3.19023
-27.6974
-13.9899
-7.21828
25.0083
-38.8876
-10.7926
83.1346
-81.1998
-168.966
-119.721
-14.0237
303.694
-207.997
-122.556
-8.80807
414.691
432.357
437.1
392.26
274.659
418.04
428.709
436.226
379.165
266.123
416.174
425.063
435.068
432.014
332.5
414.378
422.41
431.07
432.449
212.734
414.103
423.649
432.97
455.455
316.302
410.221
424.733
432.573
352.195
297.026
389.204
427.631
428.609
430.508
312.277
309.619
430.368
433.382
-115.595
-67.0594
107.497
5.99255
-60.1892
-119.954
-49.8214
50.0219
93.4436
-183.77
-20.0475
26.3265
17.0355
-17.5394
-12.2529
-6.327
15.5172
7.87048
-5.73894
-4.71193
-3.76853
9.09658
-1.63498
-1.65946
-1.66696
-7.04388
-10.5326
-8.46416
-4.7129
-1.12915
-7.56604
-19.6068
-13.5416
-4.71232
6.22404
-11.7924
-38.6673
-26.2867
-8.2773
30.2166
-29.8052
-72.982
-52.8817
-12.5591
99.4728
-71.0737
-179.627
-122.147
-25.8607
381.89
437.63
438.523
439.056
1.12431
417.98
431.116
435.836
388.426
261.058
417.86
426.767
434.595
458.961
164.558
415.395
421.733
426.051
290.331
231.911
409.089
417.965
415.582
338.893
259.603
411.699
419.419
421.317
290.136
225.178
412.935
423.181
431.529
440.399
177.803
400.865
424.31
428.998
413.057
257.345
352.303
431.779
434.299
385.187
311.458
140.411
-30.0906
-74.6933
-150.487
-78.3202
39.8488
13.329
-44.199
-58.6942
-21.3464
23.2423
7.83402
-12.4689
-18.4441
-8.71405
15.815
9.38716
-2.63226
-8.99226
-5.28349
7.85762
8.79881
1.2886
-2.45806
-2.77064
-13.4345
-6.7024
-10.2753
-8.56461
-4.61509
-0.653706
-7.10249
-19.2448
-13.8833
-4.94879
7.23139
-11.8802
-38.7276
-27.7464
-8.99956
32.6655
-31.5398
-78.1846
-59.0509
-12.2546
118.758
-68.1801
-181.275
-128.688
-29.2067
386.627
438.717
438.247
422.415
418.639
431.835
436.738
442.302
331.571
418.632
427.047
443.303
451.093
204.643
413.2
421.374
420.104
332.09
278.423
409.136
417.118
406.486
339.492
268.427
407.671
419.545
414.211
334.622
264.052
413.961
423.592
429.626
455.931
212.606
403.638
424.917
430.018
442.459
261.058
356.524
431.18
432.779
416.223
314.979
148.326
-38.7758
-94.6355
-152.866
-62.1491
34.9981
2.27315
-44.4109
-53.0935
-19.6601
22.8732
7.84362
-14.6417
-19.2214
-8.85687
15.0316
9.11173
-3.18895
-9.8009
-5.36448
7.27789
8.31139
0.764775
-3.32037
-3.31267
-6.52657
-10.0479
-7.8843
-4.66156
-2.40947
-6.37069
-15.3745
-11.9604
-4.58216
6.94316
-6.05616
-27.0129
-23.5848
-9.29086
35.3594
-13.1341
-68.5244
-67.1775
-12.4903
127.194
-59.3309
-138.244
-159.127
-36.3765
376.616
437.849
438.838
414.409
-21.5202
416.786
432.669
436.583
428.125
279.263
419.851
429.381
439.529
439.455
212.721
417.726
424.074
428.511
322.746
232.74
414.579
420.922
420.361
331.296
270.463
415.999
422.171
425.68
328.036
260.954
413.325
426.245
434.638
442.827
144.993
400
427.946
431.291
352.728
265.437
339.071
435.115
434.959
423.479
317.722
112.337
-57.1285
-95.3929
-153.531
-32.236
42.0339
12.5677
-46.3077
-67.2522
-15.82
22.3478
11.2505
-13.1198
-18.7835
-6.02115
12.2746
7.45063
-4.41702
-7.5991
-4.75216
5.82465
7.53421
0.409188
-3.31702
-2.99583
-0.261121
-6.654
-16.8246
-8.19093
-3.86162
8.55258
-4.17637
-26.8912
-7.90842
-7.67076
28.1974
-20.5755
-12.6461
77.4616
-43.5848
-129.247
-166.114
-28.6591
290.306
-135.381
-151.613
-30.8428
398.709
434.388
437.355
438.439
292.458
416.814
431.116
436.706
434.725
228.792
419.015
429.479
434.523
454.108
323.61
418.821
432.696
442.312
443.059
228.808
415.269
428.048
434.969
431.611
262.013
408.883
428.075
432.454
374.53
261.772
385.665
432.651
432.197
374.277
300.987
292.217
433.531
435.419
-168.473
-43.5958
67.8477
-43.6248
-122.971
-186.816
-18.0573
28.4903
-4.42107
-89.9959
-10.5584
15.7476
19.579
-21.744
-17.7736
-5.36527
9.49923
10.7696
-8.90943
-8.41589
-3.90267
6.71736
-3.26133
-4.01932
-2.63224
-3.27701
-7.86593
-18.153
-8.01018
-3.57588
1.64211
-8.40575
-18.8847
-14.0802
-6.23024
10.9723
-11.111
-35.5446
-32.4902
-10.6616
38.5858
-32.8372
-85.0279
-80.5754
-19.6451
133.046
-67.0748
-143.781
-156.876
-38.048
335.582
439.833
440.549
-42.0444
394.128
434.913
436.704
430.71
264.501
406.136
430.866
435.089
447.707
252.483
408.132
430.396
439.309
359.859
167.134
403.128
430.079
433.889
442.449
263.654
385.418
433.881
432.619
404.488
290.584
338.824
435.553
436.006
341.428
-8.03995
94.6013
-110.792
-173.835
-159.204
-21.4651
13.4739
-17.6199
-48.6037
-41.0266
-14.7145
5.7959
-6.64463
-32.1603
-27.2212
-7.10277
4.39526
-8.29246
-18.6883
-12.0625
-5.38793
2.40675
-6.13529
-17.8397
-5.73898
-2.68611
-11.2231
-7.18141
-11.0581
-7.80734
-4.18199
-3.08104
-7.49478
-12.794
-10.8991
-5.24602
3.57397
-6.67159
-22.8649
-18.081
-7.3296
18.5981
-9.06368
-38.2459
-43.983
-14.4768
53.6754
-30.5633
-108.315
-138.549
-22.4602
123.231
-46.7324
-92.6326
-161.64
-54.7499
283.599
436.567
-112.326
-149.786
-37.0278
352.908
436.187
438.658
393.647
362.07
436.48
439.324
402.787
318.711
351.243
435.982
437.586
423.257
282.475
436.91
-158.342
-24.5294
97.5753
-180.521
-14.911
35.959
-33.2816
-91.1478
-81.472
-13.8352
5.15064
-8.57945
-28.1605
-22.3853
-7.63964
-0.392186
-8.16937
-17.248
-12.6384
-4.90861
-2.0418
-6.55855
-12.843
-10.2339
-4.64417
-5.40288
-5.91445
-10.633
-7.27085
-3.59187
-7.1497
-6.6604
-10.1064
-8.40787
-3.88367
-1.53247
-6.17422
-14.8473
-11.2401
-4.85181
6.46334
-6.05815
-23.6054
-21.3574
-7.29126
23.6738
1.38875
-46.3078
-34.3665
-11.6273
38.786
-21.0672
-76.9307
-102.1
-16.2235
54.6221
-57.841
-130.148
-126.693
-17.1243
72.3732
-112.358
-139.253
-123.464
-25.6113
82.2149
-123.683
-162.912
-22.4791
72.0127
-110.899
-156.731
-121.014
-12.2638
49.838
-60.446
-138.276
-113.412
-14.2487
31.3742
-14.5678
-83.8683
-106.509
-10.1668
15.0107
-7.31324
-53.9128
-29.9615
-7.35662
2.9212
-7.34878
-23.2501
-18.8576
-5.31045
-2.35572
-7.33957
-14.6169
-11.883
-5.07267
-5.66046
-6.46123
-10.8485
-9.35842
-4.53783
-4.63097
-7.01981
-12.6286
-8.62497
-4.06617
1.8112
-5.00803
-19.7377
-11.5145
-5.07257
5.52481
-5.86671
-27.3535
-12.023
-6.41191
5.27555
-8.83966
-25.6442
-22.925
-9.88499
7.2444
-14.4879
-35.3435
-27.9289
-11.008
21.3606
-17.8541
-46.2524
-41.7584
-11.4958
26.876
-23.1745
-54.2447
-10.9522
7.76678
-20.1986
-50.1431
-25.7037
-9.87685
4.18213
-10.8667
-29.09
-24.0383
-9.79843
6.18184
-8.656
-28.4878
-26.8202
-6.54862
3.19107
-3.93327
-29.5447
-17.3456
-4.74853
-1.17867
-5.91903
-20.7232
-10.9792
-4.07146
-5.70549
-7.18821
-12.5541
-9.09363
-4.48595
-6.5759
-9.59818
-7.60991
-4.32279
-2.76734
-1.92549
-3.18046
-3.08899
-7.53353
-14.4293
-9.99893
-4.9945
-0.523005
-6.46317
-15.9361
-14.4802
-6.4621
-0.889225
-7.87105
-19.2746
-14.5601
-5.26316
3.03578
-7.83338
-22.5495
-18.7171
-5.16581
6.64829
-9.6422
-20.0717
-4.85354
-0.886242
-12.2918
-24.4675
-12.8481
-4.88217
0.109165
-8.60984
-17.1532
-13.0929
-5.1084
-3.26214
-8.92405
-16.6715
-13.4058
-5.76614
-4.83628
-8.9414
-15.7906
-10.3513
-4.5864
-3.69051
-1.14654
-22.8295
-12.3312
-3.32554
-13.8778
-6.30372
-3.51845
-10.6727
-6.97596
-10.8402
-7.4625
-3.98879
-7.04847
-7.01356
-10.4253
-9.26988
-4.72819
-5.28259
-6.79158
-12.9545
-10.5032
-4.78749
-3.62238
-7.64787
-15.1503
-10.3183
-4.70761
-0.415575
-9.6087
-11.449
-4.60115
-4.39391
-10.7074
-15.9291
-10.0942
-4.59255
-7.30234
-9.5728
-12.8913
-10.3969
-4.66745
-8.58179
-8.80111
-12.2029
-10.2365
-5.00194
-10.6547
-8.3904
-12.0211
-8.5798
-4.34728
-12.2168
-6.84642
-11.878
-8.40499
-4.18946
-9.53384
-9.71051
-5.65806
-3.12183
-12.7147
-8.99749
-14.2976
-8.71686
-4.19144
-8.39085
-4.57969
-10.6783
-11.3211
-9.21731
-8.18716
-4.98755
-4.12808
-0.333573
-7.24275
0.317844
-11.3708
-10.8997
-19.4479
-11.8623
-9.33388
-19.9619
-10.2106
-8.05806
-4.8447
-10.4843
-3.1657
-4.03753
-0.349655
-2.84707
-0.333774
-6.83888
10.6445
-1.59493
-6.39088
-2.81762
-10.3286
-10.8386
-7.6659
-22.4459
-2.8655
-6.1516
-3.92962
-2.60538
-0.30516
-3.40498
-0.378864
-2.33114
-3.27558
-9.60283
-10.193
-7.60308
-6.18507
-4.06685
-3.49817
-0.379777
-7.21002
-7.49846
-10.8318
-11.2834
-9.30863
-8.241
-5.10183
-4.29914
-0.263685
-13.3623
-7.26467
-8.50641
-6.86621
-7.49669
-10.6136
-7.28333
-9.42281
-11.039
-9.28494
-10.5906
-9.95498
-8.23878
-5.20813
-9.00676
-6.06575
-4.40695
-0.307705
-4.62548
-0.804633
-7.66132
-6.57139
-5.45407
-5.88385
-7.00577
-9.33655
-6.67384
-10.0283
-10.477
-10.2805
-11.7709
-11.2336
-9.39577
-6.43519
-10.5352
-6.98664
-4.85736
-0.862412
-5.24495
-1.01209
-10.5632
-5.80524
-5.12604
-5.32193
-3.86095
-4.4399
-6.21217
-10.4928
-6.43641
-9.23727
-6.34113
-10.5334
-9.84514
-11.47
-9.97612
-12.5443
-11.9288
-14.2253
-13.3667
-5.82793
-7.98319
-5.36645
-10.2409
-7.61865
-10.9404
-7.90191
-4.04466
-0.649535
-4.52566
-1.77619
-4.638
-1.82536
-5.51737
-3.16846
0.620461
-2.44577
-3.23614
0.503832
1.5825
-11.6051
-7.65901
-19.8029
-6.84484
-11.6055
-12.3545
-23.0674
-10.2936
-20.23
-11.5205
-13.9078
-12.4374
-24.1193
-14.4495
-5.29009
-5.79456
-3.94492
-9.20589
-7.35954
-6.46813
-4.28736
-0.727112
-3.07515
-0.660814
-4.79677
-2.03208
-3.50975
-1.58506
5.666
-6.16971
-1.45571
2.77513
11.4816
1.20471
0.435063
-3.0597
-10.0124
-1.88455
-2.69507
-11.3899
-10.8517
-8.33086
-16.5999
-12.5049
-11.5532
-2.96568
-6.03288
-4.31613
-20.75
-5.28602
-8.95007
-5.92113
-0.510847
-3.37216
-0.674214
-4.01436
-1.59573
-4.48046
-1.9978
-2.42677
-2.41655
0.533532
-0.921233
-0.0221259
-1.30776
-9.52242
-2.71685
-6.67203
-4.36576
-9.35221
-4.1545
-7.23701
-8.66768
-7.33889
-7.02034
-12.5625
-11.673
-9.69902
-9.30431
-4.50918
-6.29747
-4.45761
-8.16307
-5.9791
-8.41561
-6.46693
-0.667608
-3.92228
-0.399537
-4.28571
-1.84327
-4.41276
-1.91798
0.27576
-0.986971
-0.549864
-0.787933
-6.21126
-2.98675
-5.45785
-1.88275
-5.49045
-6.75813
-8.20625
-8.73312
-7.03219
-7.90488
-4.52316
-7.76581
-6.03585
-7.49529
-5.50994
-0.380534
-3.96491
-1.73543
-4.32543
-0.8705
-0.843936
-0.750274
-2.20063
-0.39419
-1.70906
-5.22408
-0.847055
-4.8452
-6.72077
-7.40679
-6.3927
-6.38789
-7.01962
-5.09243
-5.59221
-4.22687
-4.07596
-0.80035
-3.47074
-0.68146
-2.77922
-0.265261
-0.723282
-5.69922
-6.42812
-6.1912
-5.5899
-3.81666
-3.37604
-0.349492
-8.04993
12.074
-5.51789
-3.8212
-3.10214
-0.562561
-11.7164
-7.15471
-6.21879
-1.85651
-5.60993
-5.41734
-7.45073
-11.2914
-7.69432
-8.37682
-13.6016
-11.9308
-10.1632
-14.1111
-15.4573
-13.5257
-8.10843
-5.32507
-3.09429
-4.72849
-8.74244
-5.92476
-4.02017
-0.644296
-3.52794
-0.657123
-3.90935
-1.59859
-6.99727
-6.41477
-6.1732
-4.98595
-5.10377
-3.6085
-4.75905
-10.588
-7.61215
-9.73035
-8.00125
-12.2914
-7.66256
-11.7144
-10.3179
-11.7458
-11.7797
-14.5465
-13.8352
-14.6705
-14.4169
-5.86924
-9.51479
-7.49017
-10.3864
-7.56552
-11.9077
-8.7887
-0.77441
-4.25811
-1.75074
-4.96939
-2.14952
-5.35126
-2.21285
-12.8777
-12.2802
-23.8835
-6.5963
-15.5388
-4.21589
-33.0368
-15.256
-25.2459
-15.6437
-20.3726
-19.703
-34.3808
-24.2834
-2.50354
-12.7123
-6.23302
-1.01348
-17.6867
-18.2236
-13.951
-13.3405
-27.3925
-20.5056
-20.3469
0.94106
0.135296
0.183212
5.99374
3.22874
5.01077
3.60714
0.443582
5.16414
3.81679
7.75002
7.07322
-5.72757
-2.1947
-8.26862
-0.115766
-15.1411
-6.79259
-10.6371
-9.58795
-14.9046
-7.24621
-3.97936
-6.57263
-4.63174
-2.40726
-3.50725
-0.664429
-3.47299
-1.56472
-2.42537
-0.600321
8.34602
10.0708
0.250522
-16.9705
10.5278
-2.20659
-17.0847
-6.99267
-3.90311
-3.39896
-4.46463
-0.944292
-1.98622
-0.679987
-1.15812
-0.348265
-0.79062
-0.361909
-12.4344
-10.8939
-11.5672
-13.7031
-14.2367
-11.235
-9.42005
-5.63882
-4.26687
-0.748213
-6.54042
-2.20267
-10.7485
-10.2575
-6.55121
-7.51754
17.4754
-11.9623
-14.5763
-11.8509
-20.0847
-36.7099
-15.3342
-13.1107
-20.3726
-13.9968
-1.35978
-4.47852
-8.85064
-6.2386
-8.66503
-6.3156
-3.30597
-0.633573
-3.82649
-1.55797
-4.01834
-1.67556
-6.97137
-17.0292
-11.3427
-23.3574
-2.10308
-29.6136
-18.0354
-14.7697
-23.2915
-14.0709
-28.6207
-21.624
-20.126
-4.27961
-35.5847
-12.3779
-31.5266
-5.45549
-68.057
-27.7802
-36.886
-27.5612
-41.5346
-43.6675
-63.7999
-59.5553
-0.856466
-21.0242
3.14363
-0.075682
-40.5848
-31.0121
-24.269
-25.8005
-68.8706
-46.6429
-48.8066
-11.7395
-1.44508
-16.1882
2.54328
-20.9015
17.7525
-8.83264
-11.8601
-16.245
-6.86088
-23.2849
-19.1787
-11.2332
-11.6763
10.9549
5.08758
10.9311
14.6799
16.1241
12.3468
12.3306
10.2336
-0.742254
14.1255
-4.18327
9.16253
2.48374
-7.35742
-3.74076
-3.80306
-9.01989
-10.0033
-3.31164
-4.75348
-1.64435
-1.56197
-1.28959
-6.79043
-3.74943
-3.63225
-2.84774
-0.802689
-1.15958
-0.420212
-3.08134
-1.40344
-2.70628
-1.32472
10.7075
11.134
10.8543
10.1728
-0.231417
9.46665
2.67529
9.70978
4.56648
-2.6501
-0.202636
-2.73327
3.20279
-0.395787
-1.26749
-2.83861
-2.28852
-0.334229
-1.64493
-0.382603
-2.2559
-0.570284
-1.51672
-0.421953
-14.9187
-11.7776
-11.6014
-12.6337
-12.9979
-10.8888
-9.42071
-6.04489
-4.51449
-0.707993
-11.4929
-10.8627
-13.1065
-11.5786
-10.0206
-10.514
-11.8462
-13.0773
-11.7659
-13.0473
-12.14
-14.1932
-14.0471
-12.5821
-13.2959
-11.4507
-15.2466
-13.8465
-9.68591
-7.20851
-9.86316
-6.36755
-10.7978
-7.81804
-4.21004
-1.70251
-4.59548
-0.79133
-4.40152
-1.7392
-24.06
-4.19312
-34.0794
-13.5444
-24.0815
-11.1169
-40.2692
-17.8346
-30.8515
-28.3655
-27.5396
-24.8176
-42.142
-33.7477
-30.6613
-9.48772
-28.3694
-8.19665
-49.8932
-5.13526
-54.0717
-22.8287
-31.9705
-34.0054
-49.906
-36.9818
-64.9385
-67.5674
-54.2346
-3.86413
-79.8079
-82.896
-128.374
-62.2537
-135.918
-76.5994
-75.0153
-77.2968
-148.987
-144.404
-149.493
-162.929
-6.04426
-54.9455
-12.2965
-74.7017
-143.309
-89.7426
-65.0291
-69.7834
-154.937
-162.337
-164.324
-21.5949
2.77534
-24.2291
2.95031
-57.801
67.4526
-39.5597
-28.3586
-27.6372
-77.2481
-109.754
-83.3833
-25.7561
17.0654
-7.13158
36.5716
-37.4192
17.1223
-5.3111
-20.0101
-12.4858
-14.0489
-38.5573
-58.0224
-12.56
-20.7799
12.4031
5.34447
10.6541
15.5462
13.7628
12.755
12.3484
4.99175
9.6391
5.39549
10.5627
4.91351
10.4028
6.80553
-2.63934
2.77279
-0.456792
-1.02361
-4.50268
1.75493
-1.43413
-2.96142
-0.572349
-1.82735
-6.08306
-4.7816
-3.58801
-3.49366
-1.23036
-1.65996
-0.510627
-3.89774
-1.81062
-2.76408
-1.31676
10.3383
11.3474
11.3235
4.96934
10.5179
5.64529
-0.14802
2.80701
-0.939532
-1.70159
-2.16787
-2.14511
-0.384806
-2.11971
-0.548139
-12.1776
-14.1968
-14.2434
-10.1088
-9.56563
-5.0628
-4.65326
-0.175849
-13.5904
-11.6719
-17.2017
-11.683
-10.3004
-11.1568
-11.7829
-12.9901
-11.8924
-14.0381
-12.3266
-13.8623
-13.3154
-11.4213
-14.082
-10.2155
-14.5793
-13.0998
-9.8683
-6.34613
-9.37778
-5.17543
-10.027
-7.07908
-4.65241
-0.778025
-4.48723
-0.23184
-4.04816
-1.55383
-56.2818
-7.5044
-73.0655
-46.5825
-98.1617
-84.0505
-142.295
-48.3098
-80.7497
-107.51
-112.613
-110.33
-147.41
-186.95
-84.8407
-82.616
-105.116
-1.48942
-82.2323
-127.918
-115.524
-129.645
-168.895
-176.941
-131.576
-142.208
-115.064
-80.2409
-135.459
-130.627
435.078
437.496
-184.621
-153.642
-176.317
-133.915
-145.906
436.824
-77.9216
-147.098
-75.0607
-134.068
-63.3815
-48.8417
-6.66901
-35.3603
-8.658
-31.2102
-5.74543
-28.3928
-1.15754
-93.9616
151.746
-114.997
337.371
430.689
351.349
426.787
-139.502
-84.9478
-137.965
436.302
437.372
433.431
436.447
-174.998
-150.382
-156.282
436.652
388.074
436.123
365.761
-77.8634
-147.39
-62.7546
418.968
-43.8575
443.16
-7.88906
-30.5179
-5.58765
-29.2106
-0.0947404
2.7416
-102.559
129.194
-122.534
350.865
427.005
342.042
424.226
-108.625
-139.349
433.38
435.769
432.671
435.986
-146.834
-159.32
-168.056
435.509
402.259
435.634
360.146
-60.6806
-152.219
-83.3642
428.557
406.098
-45.7061
-5.86787
-40.7885
-9.33175
4.30384
-28.4537
1.70544
-140.149
-66.3161
-116.011
433.481
436.21
432.272
-171.529
-140.159
-190.258
435.742
385.568
-162.198
-93.2566
-162.459
-106.159
417.241
-48.0074
-156.904
-79.0129
-10.2452
-52.7421
-12.4985
-29.2197
0.262888
-43.4185
-2.61082
-84.3245
-47.882
-84.3597
-112.04
-70.2994
-87.3558
-183.534
-113.037
-160.642
-122.557
-157.947
-101.045
-157.631
43.9363
59.5616
50.9129
115.696
42.9835
84.972
44.8182
-71.8626
40.5856
-51.8401
10.0123
-58.9674
-143.535
-50.6063
-89.6353
-76.2692
-119.473
-133.267
-95.9743
-91.2449
-148.003
-153.122
-134.721
-144.96
-23.7346
15.7831
-3.55734
4.44851
-31.4588
11.2024
-11.7408
-63.2482
-21.9299
-31.9931
-66.9949
-108.436
-37.8848
-56.6502
11.8195
15.3817
13.4468
11.7873
11.8279
7.33273
10.7283
6.21393
10.5327
4.88237
-0.682199
0.874022
-2.22052
2.38302
-0.607829
-2.64265
-4.1859
-3.52081
-0.840443
-1.59917
-1.25275
-3.08844
-1.43814
-1.63039
-0.534964
10.4897
11.3629
10.674
4.06516
2.74782
-0.173637
-0.024288
-1.10974
-1.46378
-0.276465
-17.7834
-12.2767
-9.67966
-8.01937
-12.4593
-14.634
-13.2825
-19.7485
-14.6097
-9.94099
-19.3367
-11.2322
-9.07016
-4.85126
-7.0768
-4.71981
-5.11686
-0.227334
-3.61154
-0.614152
-11.3267
-9.2227
-10.2099
-8.41156
-9.27304
-6.77775
-9.03002
-14.8577
-13.0721
-15.7376
-13.8496
-18.6146
-14.0365
-18.4378
-11.4709
-16.6811
-14.6719
-17.9843
-14.2387
-19.2337
-16.331
-5.6935
-11.1812
-7.92544
-7.95722
-6.01853
-10.7362
-7.50636
-0.622934
-4.52775
-1.79151
-3.60944
-1.46917
-4.59255
-1.88999
-154.704
-108.004
-139.708
-127.383
-210.832
439.114
-176.101
-159.19
-190.356
-213.954
-179.203
-181.227
-137.78
-131.64
439.084
439.737
433.248
437.374
-176.787
-133.203
-141.889
439.542
-173.716
435.645
376.118
-72.5457
-135.216
-51.2118
-144.939
-36.1693
423.654
317.918
-3.44226
-23.2229
1.35068
-16.6644
2.26758
314.864
434.824
437.449
433.76
436.292
431.111
434.458
-144.813
436.676
461.631
434.41
406.219
433.586
415.911
-51.3289
425.507
407.241
315.022
419.34
345.158
1.81051
-25.3186
1.30477
317.366
19.0903
274.74
7.75734
436.845
432.747
434.562
428.343
433.143
427.514
431.748
402.877
436.105
344.347
433.273
413.517
432.49
442.516
452.183
348.757
439.718
311.167
445.051
246.542
1.36317
326.555
3.11149
244.275
2.1177
303.602
2.11294
433.91
432.037
435.443
426.815
431.265
426.302
431.062
404.257
434.803
392.309
432.494
434.6
430.878
475.421
320.074
412.372
323.525
425.984
298.44
372.284
292.909
3.64807
1.91561
296.405
294.302
5.77912
435.759
432.239
435.556
427.476
431.81
429.791
433.067
374.046
434.878
-162.426
431.352
416.044
430.721
377.503
-152.037
-67.424
353.59
225.561
411.355
278.096
1.59112
-47.2931
-0.339408
238.82
5.9369
310.829
-7.1804
435.363
-67.8678
427.807
433.422
434.186
434.376
-163.191
-143.897
432.783
549.758
433.351
411.113
-75.7432
-111.581
-106.197
404.711
319.339
395.741
-78.6326
-3.85841
-74.0514
-18.694
300.89
-13.3379
-59.8051
-16.3114
-42.5805
-55.5444
431.613
434.593
-28.3054
-59.5692
-80.7897
-112.214
433.966
410.438
-69.9214
-116.825
-134.528
-142.456
-138.686
-84.7207
-135.917
-129.217
11.929
15.3439
14.493
3.89603
10.9503
-1.83942
-0.719707
-3.98495
-2.82209
-1.17953
-0.574703
-0.986033
-0.465224
-1.53205
-0.496324
-7.61165
-7.22418
-5.30347
-3.56652
-12.7463
-22.1641
-5.46958
-17.2304
-21.25
-9.08712
-18.0122
-14.0328
-3.93841
-4.42463
-9.82191
-5.30558
-3.31689
-0.625114
-4.14232
-0.775159
-6.05746
-3.76327
-7.60715
-2.86492
-2.43143
-0.336476
0.521691
-22.2264
-13.1999
-24.4595
-5.05046
-17.8148
-4.84047
-26.5007
-11.3558
-24.0414
-17.5226
-18.7984
-15.5258
-28.2878
-13.8314
-5.4916
-13.6251
-6.66823
-12.0321
-6.07428
-7.18813
-8.70243
-25.5973
-16.7988
-33.0194
-5.78052
-28.8315
-25.0268
-20.4281
-35.2116
-31.238
-30.2179
-15.0424
-42.7843
-37.3103
-34.6584
-56.2975
-25.3664
-65.573
-43.4969
-124.141
-42.0153
-66.8387
-61.6573
-61.3435
-51.8471
-134.288
-107.382
-112.994
-148.127
-180.077
-76.5848
-169.409
-149.406
-210.558
-108.32
-187.856
-157.776
-187.657
-181.964
-221.593
-167.231
-214.988
439.145
440.073
-212.576
434.636
438.816
-162.693
439.694
-170.004
-212.427
-147.517
438.127
459.478
-43.5363
-140.537
-30.9451
-104.574
-25.2479
406.621
293.273
-2.94781
-9.82048
1.49835
-14.0095
1.46012
305.559
-3.10342
436.817
417.7
437.51
371.943
437.19
388.226
-30.2644
433.214
314.996
353.378
273.586
382.172
154.651
3.00902
304.546
302.426
-5.56611
287.408
-0.437544
423.192
433.82
362.276
437.232
412.38
434.605
452.377
309.69
418.053
300.337
421.279
274.508
440.13
259.48
1.36902
334.734
6.92684
294.411
-1.99652
249.237
-74.1908
415.405
432.563
440.644
433.299
558.798
432.196
620.361
318.828
444.118
223.322
424.297
261.924
435.872
280.149
-0.435127
303.492
4.5671
149.211
276.149
-38.1446
430.77
430.935
417.675
433.251
467.926
432.811
430.613
274.15
365.912
305.538
430.142
10.2534
437.947
196.269
268.595
1.04844
197.482
-85.9281
377.669
431.644
443.231
432.455
444.01
432.454
428.712
275.812
424.098
297.007
454.037
232.272
385.138
228.415
5.28396
334.72
-2.50243
161.019
264.982
-0.691738
413.323
433.308
409.078
432.006
209.79
430.065
409.678
290.614
417.857
400.958
147.72
431.947
286.166
-24.0847
-11.9774
273.598
0.952191
258.165
-2.54461
434.557
-21.9068
-56.3968
431.527
430.579
431.145
434.04
420.694
-67.8433
-114.275
430.307
409.695
433.194
-78.9397
-125.685
-111.675
432.321
285.543
-116.196
-87.5476
-18.8893
-79.6006
-15.4405
312.509
-4.84817
-72.4029
-20.7325
-54.7935
-19.1635
-38.205
429.977
-15.8447
-51.9047
-120.095
-62.2968
-104.253
-112.339
-67.676
-97.8422
-130.237
-129.488
-132.371
-116.25
-97.9753
-127.371
-134.274
-25.2254
10.9786
-10.7461
1.77683
-52.26
29.7
-38.8814
-98.8396
-39.6791
-58.8387
-61.2944
-107.855
-43.9443
-71.0336
-3.65158
14.0964
-4.51518
36.6583
-32.6785
18.8511
-29.2613
-9.76135
-14.5975
-37.9698
-60.7156
-27.5758
-4.43735
14.9346
-3.40328
13.0538
-23.0461
14.1216
-8.06623
-11.897
-5.43538
-4.98725
-21.1215
-22.0322
-11.6538
-9.44579
16.9702
16.7448
16.2534
8.45417
11.6208
-5.10473
12.2276
-4.80626
9.83023
-1.52122
-4.00705
-7.95794
-7.83807
-3.95237
-3.55991
-0.644794
-5.2014
-1.14081
-1.30795
-1.10516
-0.978609
-2.35979
-1.14428
-1.22465
-0.444937
11.3822
9.64462
-1.09741
-2.50294
-2.81132
-1.58279
-1.27371
-1.28724
-0.338096
-5.52101
-5.3917
-7.02929
-6.24119
-6.15039
-8.56668
-12.6511
-7.05273
-10.1946
-7.78859
-10.9903
-14.6619
-13.0193
-10.7908
-9.23746
-13.6242
-12.7739
-8.62746
-6.05165
-8.37726
-5.35588
-9.73545
-7.0681
-3.98287
-1.68679
-4.6322
-0.212329
-4.50267
-1.86509
-17.0677
-5.07161
-21.6505
-6.97032
-12.2086
-7.4193
-14.885
-16.1705
-23.2145
-17.7332
-15.9932
-15.801
-20.2477
-19.3354
-25.3588
-6.60472
-19.6119
-10.7789
-29.4554
-19.1999
-26.9285
-26.8543
-39.1637
-36.8172
-44.859
-139.31
-13.4679
-53.3273
-52.4166
-137.579
-147.11
-118.145
-61.3552
-61.5346
-170.868
-161.331
-38.0106
232.392
-142.063
114.529
-57.0974
313.53
433.33
-156.703
-146.376
-196.552
-79.8776
-145.173
437.199
440.126
-180.058
-203.943
-166.662
-183.238
-174.869
439.613
-41.3346
-119.752
-28.094
-148.254
-56.9318
-18.2569
-2.8553
-15.3799
-0.370773
-15.157
-3.04233
-4.89249
2.16488
-204.305
436.177
437.802
437.29
439.388
434.253
436.952
-148.642
437.483
403.386
438.618
421.307
436.083
421.128
-19.8371
406.334
291.264
430.645
-4.85398
427.521
215.551
3.0944
293.321
1.40795
1.26865
3.65121
270.68
1.17217
558.956
435.816
427.787
436.126
358.421
435.653
364.538
268.522
415.889
254.802
416.653
277.255
444.369
13.2133
0.706324
319.516
308.987
4.36415
228.888
-115.194
384.846
437.448
419.625
435.791
440.978
429.866
492.75
203.272
439.738
265.42
438.309
136.245
402.366
166.34
-0.0609692
356.227
-33.8299
208.571
327.54
584.255
431.225
594.041
427.363
438.295
421.904
374.298
224.682
432.939
211.849
340.753
165.325
327.644
269.834
-27.0706
232.633
-34.6512
225.14
271.711
535.908
417.401
413.751
417.232
411.095
415.496
412.594
414.918
429.488
422.593
429.94
419.204
422.229
419.928
422.852
472.577
431.771
492.435
421.06
374.661
422.219
350.18
180.745
451.992
71.0262
330.103
268.47
276.286
238.879
162.213
269.237
497.699
238.97
767.551
454.256
433.916
212.592
425.316
394.598
429.611
432.955
211.281
395.422
196.979
264.897
186.437
441.75
237.673
374.784
0.14074
211.29
725.633
266.892
392.534
429.143
410.959
431.345
551.341
429.629
403.494
182.645
429.43
326.893
439.26
234.318
427.091
211.591
-26.3852
284.238
-1.69236
316.036
235.671
-2.27107
430.672
433.005
433.984
425.992
429.647
431.763
433.028
440.824
433.17
429.166
444.443
432.054
356.251
302.298
-83.6015
424.33
236.194
342.124
296.029
-7.58898
-69.6783
-25.4771
261.105
-25.8995
298.132
-12.8859
423.094
186.665
29.2442
337.2
420.87
200.783
-35.6164
434.308
-32.0139
-52.5934
433.802
434.759
-45.8758
-45.2354
-113.309
-66.9618
-104.578
433.36
324.666
-50.1784
-116.545
-91.1536
-117.532
-129.648
388.461
300.282
-129.244
-118.513
-24.1416
-84.6793
-29.6447
-25.8799
-78.0306
-29.2684
-56.2287
53.7451
-27.5634
-42.9282
23.6482
-38.563
-108.169
-106.785
-57.9568
-133.899
-51.9199
-119.175
19.1043
-20.4885
25.3242
-25.7316
13.8876
-6.16044
-21.5186
-25.2653
-40.3202
-87.2684
-21.2341
-32.0836
-11.0723
11.1076
-5.30785
12.2023
-0.355969
10.5854
1.06631
-18.1306
-8.63307
-9.53305
-12.205
-16.3959
-7.39566
-11.0084
14.1761
8.49097
11.3088
15.2342
13.3789
10.0939
10.0801
-0.311062
8.68665
-0.260271
8.82079
2.13224
8.57022
2.78848
-6.46207
-2.66889
-3.4219
-3.60291
-6.00513
0.221761
-2.94261
-3.9226
-2.16938
-2.06247
-6.48726
-5.38215
-3.01243
-3.08723
-1.80572
-1.8357
-0.562412
-4.38296
-1.93111
-2.6494
-0.666882
10.7285
7.15446
9.57723
-0.236051
8.84047
2.41312
-2.47981
1.06964
-2.36762
-1.80202
-2.42046
-2.95441
-0.432751
-2.68865
-0.398309
-9.2418
-10.1369
-9.00146
-8.35339
-5.67721
-4.78541
-0.224431
-6.99832
-5.5203
-5.83251
-13.4633
-6.78528
-5.08867
-5.53643
-9.90659
-6.91031
-10.0356
-6.75044
-9.31615
-6.54505
-9.64866
-9.30667
-13.5142
-12.7878
-10.4311
-9.8245
-13.3571
-12.8321
-5.49876
-10.7527
-7.99464
-8.6209
-6.15826
-11.0684
-8.29076
-0.23383
-4.84552
-1.96619
-4.57361
-0.743036
-4.95222
-1.99358
-152.269
437.876
439.882
-74.1616
-157.284
439.762
439.573
-167.828
439.422
-182.238
-156.002
439.037
431.979
-59.2359
-19.1867
-127.261
-62.8066
436.136
-37.8293
-4.25689
-8.08297
2.37389
-31.5896
-7.03696
-26.0986
0.360108