/*--------------------------------*- C++ -*----------------------------------*\
| =========                 |                                                 |
| \\      /  F ield         | OpenFOAM: The Open Source CFD Toolbox           |
|  \\    /   O peration     | Version:  4.0                                   |
|   \\  /    A nd           | Web:      www.OpenFOAM.org                      |
|    \\/     M anipulation  |                                                 |
\*---------------------------------------------------------------------------*/
FoamFile
{
    version     2.0;
    format      ascii;
    class       volScalarField;
    location    "250";
    object      epsilon;
}
// * * * * * * * * * * * * * * * * * * * * * * * * * * * * * * * * * * * * * //

dimensions      [0 2 -3 0 0 0 0];

internalField   nonuniform List<scalar> 
3072
(
4.96145
3.91108
4.76378
4.45602
4.08255
5.41413
21.733
58.6296
79.7959
90.6863
98.9553
102.873
13.1287
10.8359
10.1819
12.7968
27.0653
38.0091
43.8429
56.7642
61.7192
63.3881
64.3051
64.3191
20.3408
19.8591
28.1141
29.4448
31.4932
37.9202
43.8536
49.2545
51.2326
52.6762
53.4537
53.6337
27.1994
24.0461
27.9915
28.9411
32.1165
37.6976
42.333
44.9918
46.807
48.2039
48.9235
49.1549
30.1688
25.5764
28.008
29.1216
32.4649
37.062
40.4649
42.8435
44.5747
45.9699
46.7959
47.1402
29.2557
24.6581
27.0333
28.8054
32.1654
35.9713
39.0937
41.3399
43.054
44.4477
45.4587
46.0475
26.1423
21.8879
24.672
27.7247
31.6569
35.4446
38.4618
40.7064
42.4503
43.8725
44.9768
45.7415
23.1943
18.8241
22.7065
27.669
32.3012
36.2575
39.2926
41.5395
43.2653
44.6516
45.7446
46.5481
21.5632
17.5804
23.7649
30.4859
36.4321
40.7748
43.7308
45.7328
47.1306
48.1531
48.9053
49.4218
21.9683
20.0689
32.457
43.1726
50.4847
54.5303
56.3988
57.0664
57.0588
56.7147
56.2141
55.6169
25.6593
36.7532
62.496
77.9983
83.748
84.1221
81.8298
78.4378
74.8127
71.3219
68.1342
65.2549
116.28
116.2
129.728
133.197
129.666
120.999
111.826
103.025
95.0061
87.7825
81.395
75.7673
104.58
103.425
101.464
98.0291
92.5264
85.2912
76.2895
65.4095
52.7243
39.0373
26.1735
34.9288
63.7052
62.1791
60.5309
58.9707
57.8463
57.6794
59.4633
63.7332
69.6254
75.7019
82.282
104.134
53.1117
51.9808
50.5938
49.3719
48.9077
49.2553
51.6258
56.5723
65.2864
79.5882
103.262
155.08
48.917
48.248
47.3383
46.4786
46.1228
46.5354
48.743
53.7036
63.1301
80.3442
114.038
193.644
47.1136
46.6891
46.0043
45.3186
45.0118
45.4314
47.4527
52.1302
61.3782
79.4954
119.339
220.77
46.2481
46.0889
45.6559
45.1693
44.9416
45.3919
47.3004
51.7901
60.8645
79.223
122.73
245.977
46.1625
46.2522
46.0866
45.8313
45.7589
46.2581
48.0174
52.203
60.95
78.9489
123.927
267.103
47.07
47.33
47.3467
47.2558
47.3132
47.813
49.383
53.214
61.5626
79.1884
124.761
293.779
49.7333
49.8148
49.6993
49.508
49.4879
49.8814
51.1696
54.5355
62.3206
79.4802
125.712
322.659
54.9491
54.2177
53.4504
52.7275
52.2309
52.3032
53.1773
55.9301
62.8855
79.4892
126.284
352.318
62.6736
60.3808
58.3584
56.637
55.2905
54.6285
55.0222
56.9313
62.8758
78.6528
126.616
387.872
70.8512
66.6449
63.0769
60.1126
57.754
56.1323
55.9235
57.1198
61.6403
75.6453
123.444
445.933
5.00609
3.94295
4.79789
4.49179
4.10546
5.41907
21.5828
58.4394
79.6329
90.5158
98.789
102.709
13.1483
10.85
10.2193
12.8117
27.0239
37.9478
43.7197
56.6519
61.6322
63.3008
64.2162
64.2157
20.3605
19.849
28.0797
29.414
31.4381
37.8546
43.7696
49.18
51.1543
52.5971
53.3748
53.5548
27.1905
24.0207
27.9578
28.9037
32.0609
37.6264
42.2756
44.9263
46.7367
48.1331
48.8537
49.0862
30.138
25.5442
27.9731
29.0843
32.419
37.0092
40.4087
42.7829
44.5104
45.9043
46.7308
47.076
29.2207
24.6243
26.9964
28.7668
32.1205
35.9223
39.04
41.2826
42.9941
44.3862
45.397
45.9868
26.1098
21.8539
24.6334
27.6835
31.612
35.3974
38.4117
40.6538
42.3955
43.8163
44.9202
45.6855
23.1659
18.7951
22.67
27.6281
32.2579
36.213
39.2465
41.492
43.2163
44.6016
45.6945
46.4986
21.5414
17.5568
23.7312
30.4485
36.3948
40.7387
43.6954
45.6972
47.0942
48.1158
48.8676
49.3843
21.9471
20.0471
32.4277
43.1446
50.4615
54.5117
56.3834
57.0517
57.0431
56.6972
56.1949
55.5965
25.6383
36.7302
62.4741
77.9855
83.746
84.1273
81.8377
78.4457
74.8186
71.325
68.1342
65.2523
116.278
116.188
129.714
133.195
129.671
121.012
111.844
103.043
95.0237
87.7979
81.4078
75.7773
104.423
103.271
101.321
97.8951
92.4057
85.183
76.1964
65.3319
52.6639
38.9935
26.1428
34.8859
63.6197
62.094
60.454
58.8978
57.779
57.6135
59.3992
63.6662
69.554
75.6258
82.1953
104.019
53.0399
51.9135
50.5321
49.3145
48.8526
49.2023
51.5726
56.5164
65.2246
79.515
103.164
154.927
48.8521
48.1869
47.2814
46.4256
46.072
46.4866
48.6942
53.6524
63.0728
80.2739
113.939
193.46
47.052
46.6307
45.9495
45.2674
44.963
45.3847
47.4062
52.0819
61.3245
79.4297
119.243
220.57
46.1892
46.0328
45.6029
45.1196
44.8943
45.3464
47.2552
51.7432
60.8132
79.1597
122.634
245.763
46.108
46.1998
46.037
45.7845
45.7145
46.2153
47.9749
52.1589
60.9009
78.8889
123.837
266.881
47.0221
47.2842
47.3031
47.2147
47.274
47.7749
49.345
53.1741
61.5171
79.1318
124.673
293.55
49.697
49.7797
49.6655
49.4759
49.457
49.8509
51.1386
54.5024
62.2827
79.4291
125.63
322.424
54.928
54.1965
53.4294
52.7071
52.2105
52.2822
53.1553
55.9051
62.8545
79.4463
126.21
352.086
62.669
60.3747
58.3513
56.629
55.2815
54.6178
55.0103
56.9166
62.855
78.6199
126.551
387.649
70.8587
66.6505
63.0805
60.1146
57.7541
56.1304
55.9183
57.1125
61.6285
75.6235
123.394
445.71
5.0112
3.94563
4.7947
4.48134
4.10473
5.45617
21.9826
58.8824
79.9882
90.8943
99.1577
103.075
13.1777
10.8832
10.2262
12.8845
27.2141
38.0567
43.988
56.9045
61.8319
63.5023
64.4181
64.4295
20.4612
19.9678
28.2053
29.4709
31.5397
37.9685
43.9613
49.3396
51.3332
52.7763
53.5519
53.7277
27.3124
24.1145
28.0404
28.9818
32.1862
37.8128
42.4115
45.0761
46.8994
48.2958
49.0127
49.2412
30.2902
25.6298
28.0505
29.1727
32.5294
37.1155
40.5395
42.9206
44.656
46.0525
46.877
47.2196
29.3424
24.7066
27.0694
28.8545
32.2253
36.0317
39.1574
41.4063
43.1239
44.5198
45.5315
46.1192
26.2009
21.9246
24.7071
27.7654
31.701
35.4911
38.5113
40.7599
42.508
43.9335
45.0395
45.8045
23.2384
18.8518
22.7327
27.6992
32.336
36.295
39.3336
41.5848
43.3148
44.7043
45.7992
46.6031
21.5854
17.5969
23.7824
30.5007
36.4487
40.7954
43.7567
45.7642
47.1668
48.1931
48.9476
49.4652
21.9789
20.075
32.4511
43.1588
50.4711
54.524
56.4007
57.0763
57.0755
56.7366
56.2397
55.6449
25.6613
36.7381
62.4508
77.938
83.69
84.0758
81.7984
78.4186
74.8036
71.3207
68.1389
65.2641
116.295
116.168
129.667
133.113
129.581
120.924
111.766
102.978
94.971
87.7574
81.3783
75.7574
104.769
103.604
101.623
98.1711
92.6452
85.3901
76.3679
65.4681
52.7642
39.0611
26.1849
34.9435
63.8034
62.2687
60.6078
59.0383
57.9036
57.7309
59.5055
63.7718
69.6639
75.7398
82.319
104.179
53.1964
52.0578
50.6621
49.4324
48.9629
49.3026
51.6678
56.6112
65.3244
79.6286
103.31
155.15
48.9969
48.3216
47.4052
46.539
46.1781
46.5839
48.7865
53.7439
63.1692
80.3856
114.09
193.738
47.1888
46.7594
46.0693
45.378
45.0663
45.4801
47.4968
52.1713
61.4182
79.5382
119.394
220.876
46.3175
46.1548
45.7177
45.2262
44.9943
45.4398
47.3443
51.8312
60.9049
79.2666
122.786
246.094
46.2245
46.312
46.1432
45.8839
45.8076
46.3031
48.0592
52.2429
60.99
78.9926
123.985
267.228
47.124
47.382
47.3963
47.3021
47.3564
47.8535
49.4211
53.251
61.6009
79.2311
124.818
293.914
49.7759
49.8566
49.7396
49.5462
49.5237
49.9156
51.2023
54.568
62.3545
79.5203
125.768
322.805
54.9783
54.2472
53.4794
52.7557
52.2578
52.3294
53.2032
55.957
62.9154
79.5254
126.339
352.475
62.6861
60.3954
58.3744
56.6539
55.3079
54.6464
55.0407
56.9516
62.8999
78.6842
126.667
388.044
70.847
66.6453
63.0807
60.1192
57.7628
56.1431
55.9374
57.1354
61.6598
75.6717
123.489
446.14
5.00857
3.94495
4.80051
4.49441
4.10844
5.42316
21.6072
58.4662
79.6485
90.5236
98.7913
102.709
13.1556
10.8586
10.2261
12.8242
27.0536
37.9628
43.7388
56.6652
61.6388
63.3049
64.2197
64.2197
20.369
19.8578
28.0997
29.4351
31.453
37.8632
43.7801
49.184
51.1576
52.599
53.3762
53.5561
27.1953
24.0228
27.9669
28.9161
32.068
37.6403
42.2774
44.9285
46.7377
48.133
48.8528
49.0851
30.1374
25.5467
27.9782
29.0917
32.4214
37.0101
40.4102
42.7839
44.5105
45.9036
46.7292
47.0739
29.219
24.6304
27.0002
28.7727
32.1225
35.9237
39.0413
41.2831
42.9937
44.3849
45.3951
45.9843
26.1071
21.861
24.6436
27.6882
31.6142
35.3985
38.4122
40.6534
42.3941
43.8142
44.9175
45.6824
23.1616
18.7993
22.6764
27.6326
32.2601
36.2137
39.2461
41.4904
43.2138
44.5983
45.6907
46.4946
21.5386
17.5594
23.7368
30.4537
36.398
40.7394
43.6939
45.6942
47.09
48.1109
48.8623
49.379
21.9465
20.0511
32.4371
43.1551
50.4696
54.516
56.3837
57.0494
57.0389
56.692
56.1891
55.5906
25.643
36.7435
62.4973
78.0101
83.7665
84.1418
81.846
78.4495
74.8191
71.3231
68.1308
65.248
116.339
116.231
129.754
133.23
129.701
121.036
111.861
103.055
95.0303
87.801
81.4083
75.7758
104.423
103.274
101.327
97.9035
92.4164
85.196
76.2106
65.3471
52.6788
39.0065
26.1558
34.9051
63.6254
62.1011
60.4622
58.9069
57.789
57.6248
59.4134
63.6835
69.5735
75.6476
82.2261
104.064
53.0413
51.9146
50.533
49.3155
48.8542
49.2051
51.5771
56.5229
65.2342
79.5296
103.19
154.973
48.8507
48.1851
47.2793
46.4232
46.0699
46.4852
48.6939
53.6538
63.0773
80.2844
113.958
193.506
47.0495
46.6277
45.9461
45.2637
44.9594
45.3815
47.404
52.0811
61.3261
79.4352
119.258
220.612
46.1862
46.0294
45.5992
45.1157
44.8905
45.343
47.2526
51.7418
60.8137
79.1637
122.647
245.804
46.1046
46.1962
46.0332
45.7808
45.711
46.2122
47.9725
52.1575
60.901
78.8917
123.848
266.92
47.018
47.2801
47.2992
47.2111
47.2707
47.772
49.3428
53.1728
61.5172
79.1344
124.683
293.588
49.6918
49.7747
49.661
49.4719
49.4535
49.8479
51.1362
54.5007
62.2822
79.4312
125.638
322.458
54.9223
54.1911
53.4245
52.7025
52.2065
52.2788
53.1523
55.9028
62.8532
79.4474
126.217
352.115
62.6642
60.3697
58.3464
56.6243
55.2771
54.6139
55.0068
56.9135
62.8527
78.6196
126.557
387.672
70.8559
66.6468
63.0764
60.1104
57.7501
56.1267
55.9148
57.1093
61.6256
75.6219
123.399
445.724
170.582
164.582
157.413
148.751
140.261
131.089
121.838
112.838
104.248
95.981
88.3132
81.3116
103.061
106.069
108.155
108.955
108.583
106.93
104.219
100.577
95.7199
89.7138
83.6263
77.6378
70.3804
72.7252
74.7417
76.2775
77.4626
77.926
77.5411
76.4537
74.6821
72.4048
69.5697
66.161
53.415
54.5865
55.4454
55.9647
56.3151
56.4684
56.3125
55.9199
55.2676
54.3328
53.0978
51.6419
75.0333
69.6446
65.0557
61.2951
58.3428
56.2572
55.3943
55.9727
58.7125
67.5628
92.7398
185.44
71.8853
66.8152
62.4539
58.8889
56.0881
54.1183
53.0228
53.1821
54.6352
58.9791
70.3075
97.5853
62.2403
58.7594
55.6986
53.156
51.1054
49.6113
48.6762
48.5404
49.4455
51.3467
56.6823
66.7661
50.1351
48.5216
46.8262
45.2143
43.7877
42.6612
41.9886
41.9412
42.8601
44.1058
47.0631
51.4436
170.623
164.599
157.416
148.747
140.257
131.09
121.843
112.846
104.259
95.9932
88.3254
81.3229
103.073
106.078
108.156
108.947
108.572
106.919
104.209
100.57
95.7173
89.7138
83.6281
77.641
70.3829
72.7284
74.7431
76.2742
77.4555
77.9153
77.529
76.4414
74.6703
72.3934
69.5597
66.1537
53.4127
54.5863
55.4445
55.9617
56.3097
56.4594
56.3016
55.9077
55.2549
54.3203
53.0863
51.6316
75.0435
69.6537
65.0633
61.3011
58.3469
56.2595
55.3939
55.971
58.708
67.5526
92.7161
185.372
71.8889
66.8195
62.4582
58.8928
56.0912
54.1206
53.0241
53.183
54.6353
58.9772
70.3017
97.5681
62.2347
58.7559
55.6966
53.155
51.1052
49.6119
48.6783
48.5438
49.4503
51.3528
56.6885
66.7712
50.1268
48.5155
46.8222
45.2126
43.7887
42.6654
41.9971
41.952
42.8741
44.1219
47.0814
51.4625
170.564
164.56
157.378
148.7
140.201
131.028
121.781
112.788
104.205
95.9457
88.2856
81.2912
103.055
106.07
108.157
108.949
108.57
106.91
104.198
100.552
95.6912
89.6885
83.6055
77.6215
70.3876
72.7373
74.7573
76.2928
77.4766
77.9346
77.5468
76.4565
74.6821
72.4043
69.5683
66.1585
53.4322
54.6077
55.469
55.9893
56.3404
56.4908
56.333
55.938
55.2833
54.3467
53.1106
51.6545
75.0197
69.6368
65.0527
61.2962
58.3475
56.2647
55.4056
55.9857
58.729
67.5851
92.7729
185.509
71.8741
66.8092
62.4525
58.8914
56.094
54.1267
53.0349
53.1957
54.6514
58.9994
70.3347
97.6253
62.2404
58.7627
55.7046
53.1643
51.1158
49.6235
48.6907
48.5565
49.4637
51.3673
56.7072
66.7965
50.1476
48.5342
46.8392
45.2278
43.8021
42.6767
42.0059
41.9596
42.8796
44.1266
47.0861
51.4692
170.679
164.643
157.454
148.781
140.288
131.116
121.865
112.863
104.271
96.0011
88.33
81.325
103.114
106.118
108.195
108.984
108.607
106.95
104.238
100.594
95.7345
89.7271
83.6383
77.6483
70.4154
72.7614
74.7761
76.3067
77.4873
77.9448
77.5567
76.4668
74.6928
72.4141
69.5775
66.1674
53.4393
54.6131
55.4713
55.9882
56.3361
56.4848
56.3262
55.9311
55.2768
54.3405
53.1045
51.648
75.0438
69.6525
65.0612
61.2986
58.3444
56.2571
55.3917
55.969
58.706
67.5509
92.7179
185.383
71.8942
66.8229
62.4605
58.8944
56.0925
54.1218
53.025
53.1839
54.6358
58.9769
70.3013
97.5682
62.2463
58.7653
55.7044
53.1617
51.1111
49.6172
48.6823
48.5468
49.4518
51.3524
56.6861
66.766
50.1409
48.5272
46.8321
45.2207
43.7949
42.6693
41.9975
41.9506
42.8699
44.1155
47.0729
51.455
43.0452
43.1274
43.0899
42.8931
42.6833
42.4213
42.0776
41.6666
41.1606
40.5776
39.9709
39.3758
34.5259
34.4515
34.3365
34.1475
33.9136
33.5966
33.2452
32.9351
32.6872
32.5166
32.3531
31.9365
28.0809
28.2436
28.3594
28.3741
28.2264
27.8874
27.5187
27.3009
27.297
27.468
27.7062
27.6716
23.3416
23.8318
24.2091
24.4
24.3297
23.9268
23.451
23.1438
23.1381
23.5942
24.7225
26.4517
38.6562
36.8186
35.0828
34.0528
33.4631
33.4927
34.2278
35.5793
37.4813
39.3809
41.5235
42.8925
30.9969
27.9067
25.8151
25.0217
24.9791
25.7
27.1145
29.0253
31.1709
32.9232
34.2082
34.7551
26.9742
21.5504
19.1206
18.4636
18.7126
19.7114
21.3044
23.2696
25.2392
26.7011
27.6464
28.0523
27.7608
17.1194
14.3308
13.7762
14.1403
15.1825
16.7003
18.4807
20.2057
21.4999
22.3717
22.9246
43.0444
43.1252
43.0854
42.8866
42.6747
42.4109
42.0665
41.6559
41.1514
40.5709
39.9673
39.3755
34.5256
34.4469
34.3299
34.1395
33.9043
33.5868
33.2361
32.9281
32.6834
32.5169
32.3584
31.9481
28.0801
28.2381
28.3522
28.3661
28.2178
27.8791
27.5122
27.2982
27.2981
27.474
27.7185
27.6967
23.3397
23.8262
24.2025
24.3929
24.3224
23.9201
23.4465
23.1428
23.1421
23.6026
24.739
26.4921
38.6589
36.8235
35.0912
34.0651
33.4792
33.5117
34.2495
35.6026
37.5062
39.4071
41.5509
42.9208
31.0134
27.9247
25.8361
25.0458
25.0056
25.7281
27.1437
29.0552
31.2016
32.955
34.2409
34.7882
27.0063
21.5786
19.1493
18.4934
18.7434
19.7427
21.336
23.3013
25.2718
26.7346
27.6804
28.0868
27.8192
17.155
14.3625
13.8073
14.1712
15.2132
16.7309
18.5116
20.2371
21.532
22.4043
22.9573
43.0736
43.156
43.118
42.9204
42.7088
42.4439
42.0978
41.685
41.178
40.5949
39.9882
39.3924
34.5596
34.4815
34.3644
34.1734
33.9367
33.6168
33.2633
32.9522
32.704
32.5334
32.3696
31.9522
28.1144
28.2718
28.3847
28.397
28.2461
27.9043
27.5338
27.3149
27.3102
27.481
27.7193
27.6857
23.3714
23.8565
24.2308
24.4193
24.3461
23.9405
23.4627
23.1534
23.1447
23.6005
24.7298
26.4652
38.6718
36.8343
35.099
34.0693
33.48
33.5098
34.245
35.5967
37.4992
39.3998
41.5437
42.9138
31.0118
27.9223
25.8308
25.0372
24.9941
25.7144
27.1285
29.0391
31.1849
32.9379
34.2238
34.7715
26.9882
21.564
19.1336
18.4758
18.7241
19.7221
21.3145
23.2794
25.2493
26.7118
27.6579
28.0645
27.7781
17.1309
14.3407
13.7851
14.1484
15.1898
16.7071
18.4874
20.2126
21.5074
22.38
22.9336
43.0659
43.1469
43.1071
42.908
42.6955
42.4306
42.0849
41.6727
41.1663
40.5833
39.9767
39.3816
34.5424
34.464
34.3471
34.1565
33.9205
33.6015
33.2489
32.9388
32.6913
32.5214
32.3582
31.9418
28.093
28.2514
28.3657
28.3794
28.2301
27.8896
27.5204
27.3031
27.2996
27.4713
27.7097
27.676
23.3494
23.8365
24.2129
24.4032
24.3316
23.9274
23.4511
23.1441
23.1381
23.5945
24.7226
26.4535
38.6622
36.8251
35.0899
34.0603
33.4708
33.5006
34.2359
35.5881
37.4919
39.3938
41.5388
42.9092
31.0028
27.9131
25.8213
25.0276
24.9845
25.7049
27.1196
29.0315
31.1799
32.9362
34.2248
34.7732
26.9794
21.5553
19.1248
18.4669
18.7151
19.7131
21.3061
23.2723
25.2455
26.7116
27.6606
28.0681
27.7647
17.1224
14.3329
13.7772
14.1403
15.1817
16.6992
18.4805
20.2084
21.506
22.3812
22.9354
19.7985
20.5968
21.1759
21.4926
21.4607
20.9385
20.1978
19.4564
18.8301
18.29
18.0038
20.0618
17.0278
18.0582
18.81
19.2066
19.1813
18.5045
17.3759
15.9085
14.0139
11.228
6.63626
3.34932
14.7941
15.9533
16.8319
17.2881
17.2613
16.4453
14.9455
12.8228
9.99813
6.38392
3.15171
2.44993
12.9304
14.138
15.0967
15.6027
15.5862
14.6907
12.9713
10.5109
7.4517
4.30902
2.44094
2.42535
11.3321
12.5323
13.5288
14.0756
14.0861
13.2041
11.4469
8.96241
6.11295
3.64449
2.31398
2.43031
9.93989
11.094
12.0933
12.6743
12.7322
11.9393
10.2903
7.98159
5.486
3.49986
2.35321
2.40811
8.72542
9.80855
10.7821
11.3912
11.51
10.8526
9.40507
7.36183
5.22036
3.53861
2.49009
2.28645
7.68672
8.68775
9.61425
10.2462
10.4277
9.92584
8.72563
6.9643
5.13207
3.66526
2.64268
1.99201
6.85642
7.78011
8.65416
9.30562
9.54728
9.19484
8.23783
6.74178
5.15664
3.83527
2.77711
1.61523
6.34805
7.22501
8.07325
8.75345
9.05926
8.83132
8.06043
6.77957
5.36116
4.08304
2.8727
1.15365
6.63329
7.58212
8.51769
9.31458
9.71502
9.55043
8.82617
7.63236
6.20873
4.69808
2.95423
0.668356
12.0721
14.0044
15.9741
17.7637
18.8196
18.5376
17.1626
14.7174
11.456
7.4362
3.59321
0.878576
41.0452
13.6504
10.7705
10.3829
10.8011
11.7833
13.1342
14.6711
16.168
17.3662
18.2896
19.0508
22.4265
9.79211
8.06112
7.89893
8.35454
9.24261
10.4143
11.7284
13.0254
14.1598
15.1426
16.0618
15.0182
7.14281
6.09851
6.08972
6.55319
7.34175
8.35054
9.47552
10.6111
11.6764
12.6835
13.6995
10.6392
5.33571
4.6849
4.76829
5.21497
5.90966
6.77838
7.74631
8.74614
9.73605
10.7316
11.783
7.71263
4.06338
3.64969
3.7874
4.20742
4.81772
5.56804
6.40543
7.28818
8.19791
9.15276
10.1904
5.60995
3.13122
2.8714
3.04518
3.43705
3.97313
4.62361
5.35196
6.13256
6.96044
7.85479
8.84452
4.0441
2.42667
2.27321
2.47309
2.84003
3.31172
3.87812
4.51575
5.20797
5.95637
6.77989
7.70133
2.89764
1.88177
1.80334
2.02642
2.375
2.79193
3.28864
3.85306
4.47197
5.14829
5.89976
6.745
2.01239
1.42804
1.42737
1.67909
2.01959
2.392
2.83438
3.34588
3.91143
4.53051
5.21941
5.99372
1.30749
1.03992
1.12791
1.43943
1.78973
2.13088
2.54171
3.03
3.57003
4.15578
4.80862
5.53814
0.762871
0.729862
0.956717
1.37083
1.74828
2.08225
2.5096
3.05291
3.66002
4.29965
5.00537
5.77997
0.569234
0.831607
1.60414
2.28817
2.76032
3.21832
3.97009
5.05694
6.32565
7.62907
9.00282
10.4605
19.7973
20.592
21.1704
21.4868
21.4547
20.9332
20.1942
19.4556
18.833
18.2966
18.0146
20.0794
17.0273
18.0546
18.8058
19.2021
19.1766
18.5001
17.3725
15.9068
14.0142
11.2298
6.63863
3.35014
14.7944
15.9508
16.8291
17.285
17.2578
16.4416
14.9423
12.8204
9.99688
6.38384
3.15193
2.45019
12.9313
14.1365
15.095
15.6007
15.5837
14.6877
12.9683
10.5084
7.45015
4.30871
2.44105
2.42586
11.3333
12.5317
13.528
14.0745
14.0844
13.2018
11.4443
8.96023
6.11172
3.64434
2.31414
2.43098
9.9411
11.0939
12.093
12.6738
12.731
11.9375
10.2883
7.97992
5.48521
3.49982
2.35338
2.40896
8.72638
9.80859
10.782
11.3909
11.5092
10.8512
9.40345
7.36056
5.21987
3.53866
2.49017
2.28756
7.68723
8.68765
9.61394
10.2459
10.4269
9.92462
8.72423
6.96323
5.1317
3.66526
2.64261
1.99292
6.85641
7.77972
8.65341
9.305
9.5463
9.19359
8.23641
6.74068
5.15619
3.83515
2.77689
1.6159
6.34751
7.22414
8.07191
8.75227
9.05788
8.82975
8.05879
6.77818
5.36044
4.0826
2.87238
1.15404
6.63255
7.58066
8.51558
9.31264
9.713
9.54825
8.82402
7.63036
6.20745
4.69714
2.95389
0.668501
12.0696
14.0009
15.9704
17.7601
18.8155
18.533
17.158
14.713
11.4525
7.43405
3.59287
0.878613
41.1722
13.6893
10.8014
10.4122
10.8297
11.8115
13.1622
14.6992
16.1965
17.3951
18.3187
19.0796
22.5136
9.8267
8.08882
7.92512
8.37983
9.26739
10.4388
11.7528
13.05
14.1846
15.1675
16.0862
15.0835
7.17187
6.12229
6.11226
6.57494
7.36296
8.37139
9.4962
10.6317
11.697
12.7039
13.7195
10.6892
5.35961
4.7049
4.78731
5.23341
5.92759
6.79585
7.76345
8.76302
9.75268
10.7479
11.7987
7.75066
4.0828
3.66636
3.80336
4.22298
4.8328
5.58258
6.41947
7.30176
8.21104
9.16538
10.2024
5.63859
3.14698
2.88518
3.05855
3.45022
3.98585
4.6357
5.36341
6.14338
6.97064
7.86435
8.85332
4.06534
2.43943
2.28455
2.48432
2.85125
3.32256
3.88827
4.52514
5.2166
5.96425
6.78699
7.70761
2.91322
1.89202
1.81265
2.0359
2.38472
2.80135
3.29732
3.86089
4.47893
5.15441
5.90503
6.74936
2.02337
1.43605
1.43497
1.68721
2.02822
2.40046
2.84204
3.35262
3.91724
4.53542
5.2234
5.99677
1.31476
1.0459
1.13413
1.44671
1.79792
2.13904
2.549
3.03619
3.57525
4.16005
4.81194
5.54042
0.767179
0.734142
0.962202
1.3782
1.75702
2.09108
2.51746
3.0595
3.66556
4.30418
5.00883
5.78222
0.572202
0.836211
1.6138
2.30186
2.77629
3.23405
3.98445
5.06871
6.33629
7.6381
9.00981
10.4653
19.8254
20.6177
21.1936
21.5083
21.4739
20.9492
20.206
19.4616
18.8316
18.2896
18.0052
20.0758
17.0509
18.0757
18.8243
19.2191
19.1916
18.5123
17.3813
15.9109
14.0134
11.2265
6.63869
3.35312
14.8133
15.9676
16.8433
17.2978
17.2689
16.4506
14.9489
12.8241
9.99823
6.38492
3.15415
2.45298
12.946
14.1494
15.1053
15.6096
15.5914
14.6939
12.9732
10.5119
7.4528
4.31103
2.44284
2.42835
11.3442
12.541
13.535
14.0801
14.089
13.2055
11.4477
8.96312
6.1143
3.64635
2.3155
2.43332
9.94888
11.1002
12.0972
12.6767
12.7331
11.939
10.29
7.98183
5.48699
3.50123
2.35441
2.41103
8.73165
9.81253
10.784
11.3918
11.5091
10.851
9.40354
7.36148
5.2206
3.5393
2.49081
2.28906
7.69064
8.68987
9.61456
10.2453
10.4252
9.92324
8.72302
6.96328
5.13155
3.66523
2.64297
1.99395
6.85851
7.78088
8.6531
9.30399
9.54313
9.19201
8.23373
6.74053
5.15511
3.83448
2.77719
1.61638
6.34895
7.22478
8.07158
8.75093
9.05462
8.8275
8.05598
6.7773
5.35907
4.08161
2.87224
1.1545
6.6341
7.58161
8.51589
9.31153
9.7099
9.54599
8.82101
7.62909
6.20574
4.69588
2.95373
0.668617
12.0744
14.005
15.9735
17.7582
18.813
18.5277
17.1548
14.7096
11.4501
7.43308
3.59266
0.878478
41.0832
13.6603
10.7777
10.3891
10.8066
11.7881
13.1386
14.6754
16.1725
17.3713
18.2954
19.0573
22.4468
9.79939
8.06622
7.90327
8.35816
9.24572
10.4171
11.731
13.0282
14.1631
15.1465
16.0663
15.0311
7.14808
6.10213
6.09269
6.55556
7.34366
8.35217
9.47703
10.6127
11.6782
12.6858
13.7024
10.6478
5.33954
4.68751
4.77031
5.21651
5.91079
6.77922
7.747
8.74683
9.73689
10.7327
11.7846
7.71852
4.06618
3.6516
3.7888
4.20842
4.81834
5.56835
6.40553
7.28819
8.19794
9.15296
10.1909
5.6138
3.13332
2.87279
3.04615
3.43769
3.97341
4.62355
5.35164
6.13206
6.95986
7.85424
8.84413
4.04681
2.4283
2.27421
2.47375
2.84043
3.31178
3.87782
4.51513
5.2071
5.95532
6.77876
7.70023
2.89941
1.88297
1.80403
2.02683
2.37523
2.79185
3.28817
3.85222
4.47082
5.14689
5.89818
6.74335
2.01348
1.42885
1.42778
1.6793
2.01972
2.39186
2.8338
3.34487
3.91006
4.52882
5.21747
5.99163
1.30803
1.04035
1.12808
1.43947
1.7898
2.13072
2.54105
3.02883
3.56845
4.15383
4.80634
5.53563
0.763066
0.729958
0.956624
1.37076
1.74839
2.08214
2.50883
3.05142
3.65802
4.29722
5.0025
5.7768
0.56941
0.831467
1.60383
2.28853
2.76107
3.21845
3.96893
5.05384
6.32157
7.6241
8.99694
10.454
19.8045
20.5997
21.1782
21.4945
21.4616
20.9381
20.1966
19.4546
18.8273
18.286
17.9986
20.0555
17.0325
18.0602
18.8116
19.2079
19.1817
18.5034
17.3735
15.905
14.0091
11.2221
6.63169
3.34745
14.7979
15.9547
16.8331
17.2891
17.2614
16.4439
14.9427
12.8187
9.99306
6.37925
3.14955
2.44903
12.9334
14.139
15.0976
15.6034
15.5862
14.6892
12.9684
10.507
7.44761
4.30624
2.4399
2.42494
11.3342
12.5329
13.5294
14.0761
14.0859
13.2026
11.4442
8.95915
6.11001
3.64286
2.31334
2.43016
9.94096
11.094
12.0934
12.6743
12.7316
11.9377
10.288
7.97897
5.48394
3.49876
2.35288
2.40828
8.72542
9.80784
10.7814
11.3906
11.509
10.8509
9.40287
7.35962
5.2188
3.53783
2.48981
2.28711
7.68563
8.68617
9.61262
10.2448
10.426
9.92377
8.72335
6.96221
5.13071
3.66455
2.64237
1.99271
6.85427
7.77765
8.65145
9.30324
9.54477
9.19221
8.23522
6.73953
5.15521
3.83449
2.77673
1.61586
6.34491
7.22155
8.0694
8.74992
9.05579
8.82787
8.05726
6.77688
5.35945
4.08199
2.87228
1.15413
6.6293
7.57741
8.51237
9.30957
9.71025
9.5458
8.82198
7.62874
6.20635
4.69655
2.95385
0.66863
12.0631
13.9945
15.964
17.7539
18.8098
18.5279
17.1538
14.7098
11.4506
7.43335
3.59292
0.878758
41.0479
13.6515
10.7709
10.3824
10.7996
11.7808
13.1312
14.6685
16.167
17.3678
18.2938
19.0558
22.426
9.79207
8.06055
7.89772
8.35227
9.23929
10.4102
11.724
13.0216
14.1572
15.1416
16.0617
15.0171
7.14235
6.09764
6.08827
6.55075
7.3382
8.34595
9.47017
10.6054
11.6708
12.6782
13.6947
10.6383
5.33523
4.68411
4.76695
5.21275
5.90634
6.77383
7.74059
8.73942
9.7285
10.7233
11.7743
7.71202
4.06298
3.64913
3.78639
4.20564
4.81489
5.5639
6.39985
7.28112
8.18938
9.14261
10.1791
5.60977
3.13096
2.87111
3.04456
3.4358
3.97092
4.6201
5.34688
6.1257
6.9517
7.84388
8.83182
4.04398
2.42648
2.27317
2.47288
2.83931
3.31017
3.87536
4.5114
5.2017
5.94801
6.76905
7.68835
2.89771
1.88171
1.80352
2.02658
2.37477
2.79101
3.28664
3.84955
4.46653
5.14068
5.88961
6.73258
2.01252
1.42814
1.42775
1.67958
2.01978
2.39164
2.83309
3.34325
3.9069
4.52383
5.21026
5.98249
1.30774
1.04016
1.12847
1.44023
1.79027
2.13096
2.54106
3.02817
3.56636
4.14997
4.80047
5.52822
0.763134
0.73026
0.957534
1.37191
1.74907
2.0826
2.5094
3.0519
3.65702
4.29432
4.99753
5.77179
0.569323
0.832277
1.60579
2.28959
2.76103
3.21846
3.96982
5.05683
6.32249
7.62154
8.99078
10.4499
)
;

boundaryField
{
    rotor
    {
        Cmu             0.09;
        kappa           0.41;
        E               9.8;
        type            epsilonWallFunction;
        value           nonuniform List<scalar> 
192
(
4.96145
3.91108
4.76378
4.45602
4.08255
5.41413
21.733
58.6296
79.7959
90.6863
98.9553
102.873
104.58
103.425
101.464
98.0291
92.5264
85.2912
76.2895
65.4095
52.7243
39.0373
26.1735
34.9288
5.00609
3.94295
4.79789
4.49179
4.10546
5.41907
21.5828
58.4394
79.6329
90.5158
98.789
102.709
104.423
103.271
101.321
97.8951
92.4057
85.183
76.1964
65.3319
52.6639
38.9935
26.1428
34.8859
5.0112
3.94563
4.7947
4.48134
4.10473
5.45617
21.9826
58.8824
79.9882
90.8943
99.1577
103.075
104.769
103.604
101.623
98.1711
92.6452
85.3901
76.3679
65.4681
52.7642
39.0611
26.1849
34.9435
5.00857
3.94495
4.80051
4.49441
4.10844
5.42316
21.6072
58.4662
79.6485
90.5236
98.7913
102.709
104.423
103.274
101.327
97.9035
92.4164
85.196
76.2106
65.3471
52.6788
39.0065
26.1558
34.9051
4.96145
13.1287
20.3408
27.1994
30.1688
29.2557
26.1423
23.1943
21.5632
21.9683
25.6593
116.28
34.9051
104.064
154.973
193.506
220.612
245.804
266.92
293.588
322.458
352.115
387.672
445.724
5.00609
13.1483
20.3605
27.1905
30.138
29.2207
26.1098
23.1659
21.5414
21.9471
25.6383
116.278
34.9288
104.134
155.08
193.644
220.77
245.977
267.103
293.779
322.659
352.318
387.872
445.933
5.0112
13.1777
20.4612
27.3124
30.2902
29.3424
26.2009
23.2384
21.5854
21.9789
25.6613
116.295
34.8859
104.019
154.927
193.46
220.57
245.763
266.881
293.55
322.424
352.086
387.649
445.71
5.00857
13.1556
20.369
27.1953
30.1374
29.219
26.1071
23.1616
21.5386
21.9465
25.643
116.339
34.9435
104.179
155.15
193.738
220.876
246.094
267.228
293.914
322.805
352.475
388.044
446.14
)
;
    }
    stator
    {
        Cmu             0.09;
        kappa           0.41;
        E               9.8;
        type            epsilonWallFunction;
        value           nonuniform List<scalar> 
192
(
12.0721
14.0044
15.9741
17.7637
18.8196
18.5376
17.1626
14.7174
11.456
7.4362
3.59321
0.878576
0.569234
0.831607
1.60414
2.28817
2.76032
3.21832
3.97009
5.05694
6.32565
7.62907
9.00282
10.4605
12.0696
14.0009
15.9704
17.7601
18.8155
18.533
17.158
14.713
11.4525
7.43405
3.59287
0.878613
0.572202
0.836211
1.6138
2.30186
2.77629
3.23405
3.98445
5.06871
6.33629
7.6381
9.00981
10.4653
12.0744
14.005
15.9735
17.7582
18.813
18.5277
17.1548
14.7096
11.4501
7.43308
3.59266
0.878478
0.56941
0.831467
1.60383
2.28853
2.76107
3.21845
3.96893
5.05384
6.32157
7.6241
8.99694
10.454
12.0631
13.9945
15.964
17.7539
18.8098
18.5279
17.1538
14.7098
11.4506
7.43335
3.59292
0.878758
0.569323
0.832277
1.60579
2.28959
2.76103
3.21846
3.96982
5.05683
6.32249
7.62154
8.99078
10.4499
41.0452
22.4265
15.0182
10.6392
7.71263
5.60995
4.0441
2.89764
2.01239
1.30749
0.762871
0.569234
20.0618
3.34932
2.44993
2.42535
2.43031
2.40811
2.28645
1.99201
1.61523
1.15365
0.668356
0.878576
41.1722
22.5136
15.0835
10.6892
7.75066
5.63859
4.06534
2.91322
2.02337
1.31476
0.767179
0.572202
20.0794
3.35014
2.45019
2.42586
2.43098
2.40896
2.28756
1.99292
1.6159
1.15404
0.668501
0.878613
41.0832
22.4468
15.0311
10.6478
7.71852
5.6138
4.04681
2.89941
2.01348
1.30803
0.763066
0.56941
20.0758
3.35312
2.45298
2.42835
2.43332
2.41103
2.28906
1.99395
1.61638
1.1545
0.668617
0.878478
41.0479
22.426
15.0171
10.6383
7.71202
5.60977
4.04398
2.89771
2.01252
1.30774
0.763134
0.569323
20.0555
3.34745
2.44903
2.42494
2.43016
2.40828
2.28711
1.99271
1.61586
1.15413
0.66863
0.878758
)
;
    }
    front
    {
        type            empty;
    }
    back
    {
        type            empty;
    }
}


// ************************************************************************* //
