/*--------------------------------*- C++ -*----------------------------------*\
| =========                 |                                                 |
| \\      /  F ield         | OpenFOAM: The Open Source CFD Toolbox           |
|  \\    /   O peration     | Version:  4.0                                   |
|   \\  /    A nd           | Web:      www.OpenFOAM.org                      |
|    \\/     M anipulation  |                                                 |
\*---------------------------------------------------------------------------*/
FoamFile
{
    version     2.0;
    format      ascii;
    class       volScalarField;
    location    "250";
    object      k;
}
// * * * * * * * * * * * * * * * * * * * * * * * * * * * * * * * * * * * * * //

dimensions      [0 2 -2 0 0 0 0];

internalField   nonuniform List<scalar> 
3072
(
0.0418849
0.0535384
0.061128
0.0585326
0.0551122
0.0661364
0.165305
0.323455
0.398394
0.434043
0.460258
0.472447
0.0863204
0.139225
0.146541
0.132834
0.183686
0.264053
0.330892
0.455223
0.554506
0.658485
0.751403
0.829219
0.123441
0.250492
0.297003
0.287601
0.312086
0.417619
0.535983
0.671059
0.790882
0.898899
0.98647
1.05135
0.159251
0.31161
0.348829
0.361276
0.439918
0.567655
0.697524
0.823684
0.934449
1.02992
1.10597
1.16144
0.180381
0.366649
0.415813
0.452134
0.548773
0.67579
0.802493
0.91871
1.01966
1.10601
1.17526
1.22685
0.186101
0.387337
0.456488
0.51793
0.620673
0.744347
0.864291
0.971363
1.06464
1.14484
1.21062
1.26128
0.181148
0.382547
0.470144
0.556313
0.667116
0.787626
0.901215
1.00192
1.08974
1.1655
1.22869
1.27876
0.174913
0.373575
0.482789
0.592864
0.715299
0.835237
0.943245
1.03724
1.11839
1.18807
1.24656
1.29376
0.173704
0.377341
0.526888
0.675123
0.814143
0.932778
1.03028
1.11097
1.17855
1.23562
1.28333
1.32185
0.182879
0.419509
0.662553
0.863944
1.01504
1.12079
1.19561
1.25101
1.29327
1.32692
1.35398
1.375
0.210452
0.558901
0.962621
1.20659
1.33499
1.40347
1.43834
1.45556
1.46048
1.4604
1.45752
1.45242
0.597172
0.98113
1.42229
1.61863
1.68513
1.69826
1.68816
1.66303
1.63166
1.59775
1.56371
1.53031
0.477791
0.47433
0.468442
0.45789
0.440715
0.417508
0.38766
0.34991
0.30309
0.248118
0.190104
0.153799
0.888986
0.921819
0.926565
0.911292
0.882767
0.848274
0.809192
0.761419
0.695276
0.564107
0.407306
0.343366
1.08966
1.09966
1.09351
1.07161
1.04178
1.00926
0.975848
0.938857
0.88857
0.798628
0.597763
0.478992
1.19528
1.20688
1.20469
1.1896
1.16712
1.1426
1.11951
1.09714
1.06781
1.00764
0.836292
0.590273
1.26071
1.27584
1.27716
1.26733
1.2516
1.2352
1.22305
1.21484
1.20487
1.16949
1.03247
0.681166
1.2965
1.31626
1.32274
1.31996
1.3124
1.30601
1.30517
1.31319
1.32453
1.31768
1.22801
0.770753
1.31539
1.33889
1.35099
1.35487
1.35505
1.35733
1.36776
1.39119
1.4249
1.44474
1.39796
0.854144
1.32952
1.35427
1.36943
1.37775
1.38354
1.39276
1.41227
1.44979
1.50594
1.55464
1.53929
0.951616
1.35134
1.37229
1.38588
1.3945
1.40205
1.41404
1.43775
1.48487
1.56449
1.64756
1.65693
1.0563
1.39028
1.40031
1.40597
1.40933
1.4139
1.42373
1.44699
1.49753
1.59273
1.72013
1.77846
1.16506
1.44554
1.43756
1.42906
1.42139
1.41852
1.42368
1.44243
1.49023
1.59261
1.75661
1.90814
1.28926
1.49847
1.46973
1.44432
1.42383
1.40991
1.41028
1.42249
1.46188
1.55458
1.74745
2.01725
1.46556
0.0421893
0.0538631
0.0614283
0.0588401
0.055315
0.0661811
0.164565
0.322764
0.39785
0.433497
0.459741
0.471946
0.0864363
0.139442
0.146933
0.133156
0.183664
0.263773
0.330212
0.454425
0.553594
0.657492
0.750346
0.82816
0.123551
0.250602
0.29705
0.287613
0.311655
0.416925
0.535054
0.670026
0.789744
0.89769
0.985239
1.05012
0.159237
0.311558
0.348671
0.360982
0.439299
0.566818
0.696534
0.822595
0.933263
1.02867
1.10469
1.16014
0.180271
0.366444
0.415562
0.451695
0.548064
0.674895
0.801471
0.91759
1.01845
1.10473
1.17395
1.22552
0.185961
0.387033
0.456103
0.517393
0.619923
0.743426
0.863259
0.970231
1.06343
1.14357
1.20931
1.25995
0.181002
0.382207
0.469675
0.555696
0.666332
0.786714
0.900203
1.00083
1.08857
1.16428
1.22743
1.27748
0.17477
0.373232
0.4823
0.592243
0.714562
0.834407
0.942338
1.03626
1.11735
1.18698
1.24543
1.2926
0.173584
0.37702
0.52642
0.674556
0.813529
0.932123
1.02958
1.11021
1.17773
1.23475
1.28241
1.3209
0.182758
0.419217
0.662138
0.863515
1.01462
1.12038
1.19518
1.25054
1.29275
1.32634
1.35334
1.37431
0.210338
0.558594
0.962324
1.20633
1.3348
1.4033
1.43819
1.4554
1.46027
1.46012
1.45717
1.452
0.597198
0.980966
1.42211
1.6185
1.68507
1.69823
1.68817
1.66302
1.63162
1.59767
1.56357
1.53011
0.477309
0.473859
0.468001
0.457471
0.440331
0.417154
0.387344
0.349634
0.302859
0.247934
0.189956
0.153674
0.887918
0.920797
0.92559
0.910429
0.881969
0.847534
0.808515
0.760802
0.694733
0.563675
0.407004
0.343116
1.08848
1.09852
1.09245
1.07063
1.04086
1.00841
0.975047
0.938112
0.887886
0.798028
0.597321
0.478682
1.19402
1.20568
1.20355
1.18853
1.16611
1.14166
1.11862
1.0963
1.06703
1.00694
0.835723
0.589903
1.25941
1.27459
1.27596
1.26619
1.25052
1.23419
1.22209
1.21392
1.204
1.1687
1.0318
0.680759
1.29519
1.31499
1.32151
1.31879
1.31129
1.30495
1.30415
1.31221
1.32359
1.31682
1.22725
0.770313
1.31412
1.33765
1.34978
1.35371
1.35393
1.35625
1.36672
1.39018
1.42392
1.44382
1.39715
0.853679
1.32836
1.35312
1.3683
1.37666
1.38248
1.39172
1.41125
1.44879
1.50496
1.55371
1.53845
0.951129
1.35036
1.37131
1.38491
1.39354
1.4011
1.41311
1.43684
1.48395
1.56357
1.64665
1.6561
1.0558
1.38955
1.39956
1.40521
1.40857
1.41313
1.42295
1.4462
1.49671
1.59188
1.71928
1.77765
1.16456
1.44508
1.43706
1.42853
1.42084
1.41794
1.42309
1.44182
1.48957
1.5919
1.75586
1.90738
1.28877
1.49822
1.46944
1.444
1.42347
1.40952
1.40988
1.42207
1.46141
1.55406
1.74685
2.01659
1.46509
0.0422137
0.0538799
0.0614019
0.0587523
0.0553025
0.0664728
0.166615
0.324407
0.399034
0.434703
0.460879
0.473058
0.0865518
0.139433
0.146949
0.133239
0.18436
0.264351
0.331826
0.456317
0.555732
0.659819
0.752818
0.830623
0.123942
0.251429
0.29763
0.28785
0.312788
0.418776
0.537435
0.67261
0.792521
0.900595
0.988166
1.05302
0.159713
0.31238
0.349601
0.362126
0.441222
0.569174
0.699118
0.825331
0.93615
1.03167
1.10773
1.16319
0.180883
0.367478
0.416724
0.45327
0.550165
0.677291
0.804043
0.920279
1.02128
1.10767
1.17695
1.22852
0.186479
0.38799
0.457336
0.519019
0.621924
0.745681
0.865655
0.972763
1.0661
1.14636
1.21218
1.26284
0.181421
0.383097
0.470877
0.557249
0.668165
0.788729
0.902359
1.00312
1.09101
1.16683
1.23007
1.28017
0.175133
0.373953
0.483406
0.59361
0.716108
0.836085
0.944161
1.03823
1.11945
1.1892
1.24775
1.29498
0.173818
0.377612
0.527284
0.675548
0.814576
0.933282
1.03088
1.11166
1.17933
1.2365
1.28428
1.32286
0.182931
0.419561
0.662568
0.863906
1.01507
1.12095
1.19591
1.25142
1.2938
1.32755
1.35469
1.37577
0.210458
0.558699
0.962241
1.2062
1.33469
1.40331
1.43836
1.45568
1.46073
1.46077
1.45798
1.45295
0.597246
0.980962
1.42193
1.61817
1.68471
1.69794
1.68803
1.66299
1.63173
1.59792
1.56397
1.53064
0.47836
0.474871
0.468924
0.458324
0.441085
0.417824
0.38792
0.350114
0.30324
0.248217
0.190159
0.153841
0.89035
0.923097
0.927759
0.912293
0.883651
0.849039
0.809845
0.761962
0.695708
0.564417
0.407468
0.343463
1.09124
1.10117
1.09488
1.07285
1.04289
1.01023
0.976679
0.939556
0.889143
0.799071
0.598052
0.479135
1.19694
1.20844
1.20615
1.19096
1.16836
1.14371
1.12047
1.09797
1.0685
1.00819
0.836677
0.59046
1.26231
1.27735
1.27862
1.26873
1.25291
1.23639
1.2241
1.21576
1.20565
1.17013
1.03294
0.681381
1.29804
1.31775
1.32419
1.32135
1.31371
1.30722
1.30627
1.31416
1.32538
1.31839
1.22853
0.770996
1.31681
1.34029
1.35235
1.35619
1.35631
1.35851
1.36886
1.39219
1.42579
1.44549
1.39854
0.854409
1.33077
1.35552
1.37066
1.37895
1.38471
1.39388
1.41333
1.45078
1.50685
1.55543
1.5399
0.951905
1.35238
1.37335
1.38694
1.39554
1.40307
1.41503
1.43872
1.48581
1.56538
1.64837
1.65755
1.05662
1.3911
1.40116
1.40684
1.4102
1.41476
1.4246
1.44787
1.49842
1.59361
1.72094
1.77911
1.16541
1.44614
1.4382
1.42974
1.42209
1.41925
1.42441
1.4432
1.49103
1.59346
1.75744
1.90879
1.28964
1.49888
1.47019
1.44484
1.42439
1.41051
1.41091
1.42317
1.46261
1.55538
1.74828
2.01792
1.46602
0.042203
0.0538804
0.0614496
0.0588618
0.055341
0.0662142
0.164692
0.322865
0.397904
0.433524
0.459753
0.471952
0.086467
0.139485
0.146985
0.133233
0.183812
0.2638
0.330258
0.454463
0.553605
0.657493
0.750345
0.828157
0.123588
0.250681
0.297158
0.287685
0.311616
0.416887
0.535033
0.670002
0.789705
0.897639
0.985174
1.05004
0.159271
0.311643
0.348705
0.360912
0.43919
0.566741
0.696468
0.822521
0.933178
1.02857
1.10457
1.16001
0.180283
0.366479
0.415556
0.451577
0.547948
0.674799
0.801377
0.917491
1.01834
1.10461
1.17381
1.22536
0.185961
0.38704
0.456074
0.517279
0.619805
0.743317
0.86315
0.970114
1.0633
1.14342
1.20915
1.25978
0.180993
0.382196
0.469626
0.555585
0.666204
0.786586
0.900072
1.00069
1.08842
1.16411
1.22725
1.2773
0.174749
0.373204
0.482239
0.592134
0.714428
0.834258
0.942181
1.0361
1.11717
1.18679
1.24524
1.29241
0.173567
0.376992
0.526368
0.674474
0.813413
0.931982
1.02941
1.11003
1.17754
1.23455
1.28221
1.3207
0.182752
0.419227
0.662177
0.863558
1.01464
1.12035
1.1951
1.25043
1.29261
1.32618
1.35316
1.37413
0.210361
0.558724
0.96256
1.20658
1.33501
1.40345
1.43825
1.45543
1.46024
1.46005
1.45706
1.45188
0.5974
0.981304
1.42251
1.61892
1.68544
1.69855
1.68839
1.66318
1.63173
1.59771
1.56356
1.53007
0.477315
0.473872
0.468023
0.457502
0.44037
0.417201
0.387396
0.34969
0.302918
0.24799
0.19002
0.153731
0.887917
0.920793
0.925588
0.910426
0.881975
0.847553
0.80855
0.760853
0.694801
0.563753
0.407093
0.343215
1.08838
1.09842
1.09235
1.07053
1.04079
1.00835
0.975026
0.938123
0.88793
0.7981
0.597401
0.478778
1.19387
1.20552
1.20339
1.18838
1.16598
1.14155
1.11854
1.09626
1.06703
1.00698
0.835802
0.589997
1.25923
1.2744
1.27577
1.26601
1.25035
1.23404
1.22198
1.21384
1.20397
1.16872
1.03187
0.680848
1.295
1.31479
1.32131
1.31859
1.3111
1.30478
1.30401
1.31211
1.32354
1.31683
1.22733
0.770399
1.31393
1.33746
1.34958
1.35352
1.35375
1.35608
1.36657
1.39007
1.42387
1.44382
1.39722
0.853763
1.32817
1.35293
1.36811
1.37648
1.3823
1.39156
1.41111
1.44869
1.5049
1.55371
1.53851
0.951213
1.35017
1.37113
1.38473
1.39337
1.40094
1.41297
1.43671
1.48384
1.56349
1.64663
1.65616
1.05587
1.38937
1.39939
1.40505
1.40842
1.41299
1.42282
1.44607
1.49659
1.59178
1.71923
1.7777
1.16463
1.44494
1.43692
1.4284
1.42072
1.41782
1.42297
1.44171
1.48946
1.59179
1.75577
1.90741
1.28882
1.49816
1.46936
1.44392
1.42339
1.40944
1.40979
1.42197
1.4613
1.55392
1.74671
2.01659
1.46512
1.76876
1.77785
1.79892
1.82226
1.82747
1.81875
1.79496
1.75739
1.71344
1.66446
1.61353
1.56254
1.74157
1.71004
1.70327
1.70945
1.71825
1.71727
1.70567
1.68547
1.65534
1.61349
1.56557
1.51496
1.60784
1.5866
1.56766
1.55404
1.54675
1.5377
1.5247
1.50752
1.48662
1.46057
1.42902
1.39202
1.45217
1.43525
1.41472
1.39133
1.36761
1.34493
1.3238
1.30477
1.28652
1.26794
1.24928
1.23111
1.51366
1.4704
1.43319
1.40392
1.38308
1.37889
1.3862
1.41636
1.48931
1.65374
1.97132
1.88917
1.4643
1.41944
1.38168
1.35321
1.33378
1.32955
1.3357
1.36031
1.41457
1.52114
1.77075
1.79606
1.35325
1.32137
1.29542
1.27718
1.2665
1.26504
1.2742
1.29524
1.33854
1.4003
1.55777
1.62581
1.21585
1.20395
1.19312
1.186
1.18337
1.185
1.19715
1.21821
1.2584
1.30058
1.39445
1.45701
1.76906
1.778
1.79901
1.82222
1.82741
1.8187
1.79493
1.75737
1.71341
1.66441
1.61345
1.56242
1.74187
1.71026
1.70339
1.70948
1.7182
1.71719
1.70557
1.68537
1.65523
1.61337
1.56544
1.51482
1.60809
1.58683
1.56783
1.55411
1.54674
1.53763
1.52458
1.50736
1.48644
1.46037
1.42882
1.39183
1.45238
1.43543
1.41485
1.3914
1.3676
1.34486
1.32366
1.30455
1.28631
1.26773
1.24909
1.23096
1.51351
1.47023
1.43299
1.4037
1.38285
1.37864
1.38594
1.41609
1.489
1.65337
1.97087
1.88873
1.46415
1.4193
1.38154
1.35307
1.33365
1.32944
1.33561
1.36022
1.41449
1.52106
1.77061
1.79595
1.35308
1.32124
1.29533
1.27713
1.2665
1.26508
1.2743
1.29539
1.33873
1.40053
1.55798
1.62605
1.21575
1.20395
1.19318
1.18615
1.18358
1.1853
1.19753
1.21867
1.25891
1.30114
1.39503
1.45758
1.76882
1.77789
1.79892
1.82214
1.82731
1.81861
1.79487
1.75736
1.71348
1.66457
1.6137
1.56278
1.74181
1.71035
1.7036
1.70975
1.71848
1.71747
1.70585
1.68566
1.65553
1.61368
1.5658
1.51523
1.60837
1.58717
1.56825
1.55461
1.54728
1.5382
1.52516
1.50795
1.48704
1.46096
1.4294
1.3924
1.45298
1.43605
1.41551
1.39208
1.36832
1.3456
1.32442
1.30532
1.28706
1.26846
1.2498
1.23162
1.51397
1.47078
1.43362
1.40441
1.38362
1.37948
1.38682
1.41703
1.49005
1.65457
1.97206
1.88983
1.46462
1.41982
1.38212
1.3537
1.33432
1.33012
1.33632
1.36097
1.41528
1.52191
1.77154
1.79679
1.35367
1.32183
1.29592
1.27771
1.26707
1.26563
1.27482
1.29589
1.33922
1.40101
1.55854
1.62654
1.21637
1.20448
1.19366
1.18656
1.18394
1.18558
1.19775
1.21882
1.25902
1.30123
1.39514
1.45768
1.76959
1.77851
1.79952
1.82274
1.82789
1.81915
1.7953
1.75768
1.71366
1.66459
1.61357
1.56249
1.74254
1.71089
1.704
1.71008
1.71876
1.71771
1.70605
1.68581
1.65561
1.61366
1.56568
1.515
1.6088
1.5875
1.56847
1.55471
1.54732
1.53818
1.5251
1.50784
1.4869
1.46078
1.42917
1.39211
1.45304
1.43606
1.41546
1.39197
1.36815
1.34538
1.32416
1.30501
1.28673
1.26812
1.24944
1.23124
1.51355
1.47024
1.43298
1.40368
1.38281
1.37858
1.38587
1.41598
1.48885
1.65316
1.97079
1.8887
1.46429
1.4194
1.38161
1.35311
1.33366
1.32942
1.33554
1.3601
1.41431
1.52082
1.77036
1.79571
1.35331
1.32141
1.29544
1.27718
1.2665
1.26502
1.27418
1.29519
1.33846
1.40017
1.55755
1.62558
1.21595
1.20403
1.1932
1.18608
1.18345
1.18507
1.19721
1.21824
1.2584
1.30053
1.39435
1.45688
1.2882
1.2608
1.23179
1.20162
1.17299
1.14713
1.12506
1.10699
1.09224
1.0812
1.07576
1.07655
1.14343
1.11837
1.09184
1.06359
1.03507
1.00768
0.983585
0.964513
0.950791
0.94287
0.94107
0.9432
1.02455
1.00824
0.988938
0.965205
0.937068
0.906415
0.877048
0.8524
0.83335
0.81907
0.808078
0.800666
0.928803
0.922826
0.911874
0.892978
0.864615
0.828977
0.791056
0.755049
0.721732
0.688317
0.653022
0.624419
1.08212
1.07824
1.06419
1.06244
1.06929
1.08707
1.11757
1.15762
1.20677
1.25338
1.2987
1.3142
0.951747
0.945637
0.922707
0.9208
0.934098
0.962616
1.00443
1.05419
1.10585
1.14501
1.16982
1.17075
0.810857
0.81667
0.791541
0.790727
0.808593
0.842791
0.889327
0.941912
0.991143
1.02442
1.04246
1.04239
0.636202
0.686215
0.673117
0.676585
0.698203
0.734778
0.781869
0.833183
0.879606
0.911256
0.929186
0.9342
1.28834
1.26084
1.23176
1.20153
1.17285
1.14695
1.12486
1.1068
1.09209
1.08112
1.07577
1.07664
1.1435
1.1183
1.0917
1.06342
1.03486
1.00746
0.983389
0.964373
0.950737
0.942926
0.941262
0.943511
1.02458
1.00811
0.988754
0.964993
0.936838
0.906195
0.876876
0.852311
0.833367
0.819208
0.808368
0.801163
0.928814
0.922672
0.911676
0.892761
0.864389
0.82877
0.790909
0.754991
0.721775
0.688469
0.653313
0.624906
1.08231
1.07859
1.06465
1.06301
1.06994
1.08779
1.11833
1.15841
1.20757
1.2542
1.29953
1.31502
0.952214
0.946319
0.923535
0.92172
0.935079
0.963624
1.00544
1.0552
1.10685
1.14601
1.17082
1.17174
0.811575
0.817593
0.792626
0.791875
0.809775
0.843968
0.89048
0.943035
0.992244
1.02551
1.04354
1.04346
0.637107
0.687298
0.674334
0.677851
0.699475
0.736025
0.783075
0.834349
0.880735
0.912359
0.930273
0.935263
1.28918
1.26169
1.23262
1.20239
1.17371
1.14778
1.12565
1.10755
1.09278
1.08174
1.0763
1.07708
1.14449
1.11928
1.09266
1.06435
1.03574
1.00829
0.984139
0.965031
0.95129
0.943354
0.94154
0.943659
1.02563
1.00913
0.989724
0.965904
0.937689
0.906967
0.877541
0.852845
0.833753
0.819436
0.808429
0.801028
0.929844
0.923658
0.912599
0.893615
0.865175
0.829471
0.791484
0.755407
0.722022
0.688538
0.653226
0.62467
1.08264
1.07876
1.06472
1.06298
1.06982
1.0876
1.1181
1.15814
1.2073
1.25393
1.29927
1.31476
0.952199
0.94611
0.923196
0.921282
0.934563
0.963062
1.00486
1.05461
1.10627
1.14544
1.17026
1.17119
0.811236
0.817068
0.791954
0.791128
0.808969
0.84314
0.889654
0.942226
0.991455
1.02474
1.04279
1.04273
0.636532
0.686541
0.673449
0.676901
0.698492
0.735041
0.782109
0.83341
0.879829
0.911485
0.929426
0.934452
1.28889
1.26137
1.23228
1.20203
1.17332
1.14738
1.12525
1.10714
1.09238
1.08134
1.07589
1.07667
1.14395
1.11874
1.09214
1.06384
1.03525
1.00781
0.983684
0.964602
0.950887
0.942974
0.941176
0.943304
1.02493
1.00847
0.989106
0.965334
0.937154
0.906467
0.877084
0.85244
0.833401
0.81913
0.808141
0.800738
0.92908
0.922947
0.911954
0.893032
0.864638
0.828975
0.791046
0.755041
0.721731
0.688313
0.653018
0.624419
1.08223
1.07836
1.06431
1.06255
1.06939
1.08715
1.11761
1.15762
1.20674
1.25334
1.29866
1.31417
0.951859
0.945761
0.922832
0.920907
0.934173
0.962652
1.00443
1.05415
1.10579
1.14497
1.16982
1.17078
0.810949
0.816773
0.79164
0.790803
0.808628
0.84278
0.889269
0.941817
0.991043
1.02435
1.04243
1.04243
0.636265
0.686283
0.673181
0.676623
0.698199
0.734726
0.781768
0.833043
0.879453
0.911125
0.929105
0.934187
0.850463
0.853976
0.851115
0.837109
0.808604
0.767398
0.718346
0.664996
0.606106
0.529972
0.405534
0.237191
0.784668
0.795884
0.799818
0.790954
0.763162
0.717254
0.656829
0.584366
0.496846
0.380867
0.205283
0.0737613
0.726354
0.744338
0.753657
0.749972
0.724241
0.675774
0.606612
0.519265
0.413048
0.28668
0.14695
0.0612447
0.671884
0.695817
0.709821
0.710978
0.688701
0.640382
0.567155
0.472435
0.360712
0.244281
0.140557
0.0621213
0.619205
0.647763
0.665954
0.671475
0.653823
0.60845
0.535897
0.44085
0.332673
0.229527
0.146303
0.0634917
0.56686
0.59841
0.620313
0.629762
0.617306
0.577006
0.508922
0.418529
0.317935
0.22521
0.151264
0.0643649
0.513748
0.546698
0.571358
0.5843
0.577012
0.543107
0.482139
0.399337
0.30767
0.223242
0.152919
0.0633418
0.458769
0.491622
0.517779
0.533558
0.530807
0.503943
0.451824
0.378113
0.295736
0.218325
0.150232
0.058851
0.400433
0.431751
0.45798
0.475552
0.476481
0.456249
0.414116
0.350502
0.277627
0.206791
0.140158
0.0520873
0.335694
0.363905
0.388625
0.406412
0.409978
0.395315
0.363414
0.311846
0.248808
0.184783
0.119995
0.0423427
0.254863
0.277869
0.298686
0.314581
0.319485
0.309742
0.287006
0.251352
0.200849
0.144864
0.0845405
0.0299195
0.111538
0.123095
0.13429
0.144033
0.149521
0.147935
0.14047
0.126745
0.107213
0.0803494
0.0494533
0.0193192
0.383799
0.552718
0.565797
0.578098
0.603004
0.640186
0.685835
0.734299
0.77859
0.81114
0.832353
0.84451
0.26254
0.440331
0.473246
0.49408
0.521589
0.558446
0.601939
0.647427
0.689662
0.72374
0.749556
0.769223
0.205533
0.356808
0.397031
0.422996
0.452036
0.487971
0.529117
0.571864
0.612352
0.647525
0.677284
0.703139
0.166906
0.293006
0.334506
0.362745
0.392237
0.426788
0.465542
0.505752
0.544643
0.58033
0.61282
0.643129
0.137529
0.242312
0.282236
0.311081
0.340156
0.372932
0.409245
0.447017
0.484244
0.519792
0.553782
0.586889
0.113496
0.199997
0.237479
0.265996
0.294005
0.324643
0.358422
0.393757
0.429139
0.463897
0.498243
0.532646
0.0930431
0.162938
0.19814
0.225834
0.252267
0.280412
0.311512
0.34434
0.377636
0.410987
0.444668
0.479045
0.0759244
0.129153
0.162656
0.189233
0.213623
0.238896
0.267124
0.297318
0.328258
0.359619
0.39171
0.424873
0.0606478
0.0982775
0.129896
0.154949
0.176722
0.198673
0.223775
0.251154
0.279416
0.3082
0.337815
0.368633
0.0463172
0.070233
0.0989201
0.121305
0.139503
0.157478
0.179074
0.203349
0.228518
0.254044
0.280189
0.307419
0.0329106
0.0450644
0.0678557
0.084563
0.0972209
0.10989
0.127119
0.147534
0.16862
0.189652
0.210651
0.232322
0.014583
0.0187718
0.0290721
0.0368487
0.0417772
0.0463026
0.0532716
0.0625692
0.0726126
0.0822302
0.0917763
0.10137
0.850471
0.853837
0.85093
0.836909
0.808397
0.767211
0.718214
0.664945
0.606133
0.530067
0.405688
0.237307
0.784669
0.795766
0.799665
0.790785
0.762984
0.717088
0.656705
0.584305
0.49684
0.380893
0.205313
0.0737695
0.726368
0.744248
0.753537
0.749838
0.724096
0.675632
0.606497
0.519194
0.413018
0.286674
0.146946
0.0612487
0.671905
0.695757
0.709737
0.71088
0.688588
0.640266
0.567053
0.472363
0.360676
0.244271
0.140553
0.0621291
0.619233
0.647726
0.665897
0.671406
0.653738
0.608356
0.535811
0.440787
0.332641
0.229522
0.146311
0.0635018
0.566887
0.598389
0.620277
0.629714
0.617243
0.576932
0.508851
0.418476
0.31791
0.225208
0.151278
0.0643779
0.513767
0.546682
0.571329
0.584264
0.576961
0.543046
0.482077
0.399291
0.30765
0.223242
0.152934
0.0633586
0.458776
0.491603
0.517749
0.533525
0.53076
0.503887
0.451767
0.378069
0.295716
0.218323
0.150244
0.058865
0.400423
0.431727
0.45794
0.475515
0.476431
0.456194
0.414058
0.350455
0.277602
0.206785
0.140166
0.0520982
0.335675
0.363871
0.388574
0.406366
0.409924
0.395256
0.363354
0.311793
0.248777
0.184769
0.120002
0.0423496
0.254842
0.277833
0.298631
0.314531
0.31943
0.309684
0.286949
0.251299
0.200812
0.144846
0.0845448
0.0299226
0.111524
0.123075
0.134269
0.144012
0.149497
0.147909
0.140444
0.126718
0.107191
0.0803341
0.049449
0.0193186
0.384588
0.553855
0.567043
0.579387
0.604286
0.64143
0.687029
0.735444
0.77969
0.812203
0.833381
0.84551
0.263219
0.44143
0.474455
0.495328
0.522825
0.55964
0.603076
0.648508
0.690693
0.724722
0.750498
0.770123
0.206128
0.357819
0.398157
0.424164
0.453194
0.489084
0.530171
0.572856
0.613285
0.648404
0.678114
0.703925
0.167429
0.29391
0.335528
0.363814
0.393299
0.427807
0.466499
0.506642
0.545468
0.581095
0.613532
0.64379
0.13798
0.243105
0.283148
0.312043
0.341117
0.373851
0.410101
0.447803
0.484961
0.520445
0.554377
0.587431
0.113882
0.200682
0.238279
0.266851
0.294864
0.325463
0.359179
0.394443
0.429753
0.464444
0.49873
0.533078
0.0933686
0.163516
0.19883
0.226584
0.253027
0.281136
0.312173
0.34493
0.378155
0.411439
0.445058
0.47938
0.0761967
0.129626
0.16324
0.18988
0.214286
0.239527
0.267694
0.29782
0.328691
0.359987
0.392019
0.425128
0.0608686
0.0986506
0.130375
0.155495
0.177289
0.199213
0.224256
0.251572
0.279771
0.308496
0.338055
0.368822
0.0464893
0.0705097
0.0992958
0.121747
0.13997
0.157921
0.179465
0.203684
0.228799
0.254276
0.280372
0.307555
0.033035
0.0452493
0.0681234
0.084887
0.0975685
0.110217
0.127402
0.147774
0.168822
0.189819
0.21078
0.232413
0.0146339
0.0188414
0.0291888
0.0369949
0.041937
0.0464521
0.053399
0.0626665
0.0726948
0.0822965
0.0918258
0.101403
0.851426
0.854745
0.851774
0.83768
0.809104
0.767837
0.718715
0.665283
0.606301
0.530081
0.40562
0.237308
0.785514
0.796563
0.800407
0.791457
0.7636
0.717637
0.657147
0.584608
0.497003
0.380962
0.205399
0.0738192
0.727096
0.744919
0.754164
0.750402
0.724612
0.676097
0.606885
0.519478
0.413208
0.286813
0.147079
0.0612965
0.672514
0.696302
0.71024
0.711332
0.688997
0.64064
0.567379
0.472623
0.360874
0.244427
0.140682
0.0621729
0.619724
0.648155
0.666281
0.671747
0.654041
0.608635
0.536066
0.441004
0.332819
0.229659
0.146413
0.063544
0.56727
0.598713
0.620552
0.629951
0.617445
0.57712
0.50903
0.418642
0.318049
0.225316
0.151361
0.0644161
0.514053
0.546916
0.571513
0.584414
0.577072
0.543158
0.482181
0.399409
0.307742
0.22332
0.153005
0.0633879
0.458982
0.491763
0.517862
0.533606
0.530797
0.503936
0.451809
0.378143
0.295767
0.218371
0.150298
0.0588863
0.400566
0.431832
0.458
0.47556
0.476398
0.456221
0.414031
0.350513
0.27761
0.206804
0.140215
0.052109
0.335772
0.363937
0.388611
0.406375
0.409876
0.39524
0.363321
0.311806
0.248772
0.184772
0.120026
0.0423626
0.254904
0.277875
0.298656
0.314526
0.319385
0.309655
0.286913
0.251287
0.200809
0.14484
0.0845581
0.0299281
0.111557
0.123101
0.134289
0.144004
0.149488
0.147884
0.140429
0.126702
0.107178
0.0803275
0.0494478
0.019317
0.384032
0.552975
0.566055
0.57834
0.603221
0.640377
0.686005
0.734455
0.778741
0.811294
0.832517
0.844687
0.262696
0.44053
0.473443
0.494263
0.521748
0.558582
0.602054
0.647528
0.689756
0.723833
0.749657
0.769335
0.205649
0.356961
0.39718
0.423132
0.452152
0.488065
0.52919
0.571922
0.6124
0.647569
0.677332
0.703195
0.166995
0.293122
0.334619
0.362847
0.392321
0.426851
0.465584
0.505776
0.544655
0.580334
0.612824
0.643138
0.137598
0.242399
0.282321
0.311157
0.340217
0.372971
0.409263
0.447016
0.484228
0.519765
0.553751
0.58686
0.113547
0.20006
0.237541
0.266052
0.294048
0.324665
0.358422
0.393737
0.429102
0.463846
0.498184
0.532586
0.0930837
0.162978
0.198183
0.225875
0.252297
0.280422
0.311499
0.344306
0.377583
0.410919
0.444589
0.478962
0.0759544
0.129174
0.162683
0.189261
0.213643
0.238898
0.267102
0.297275
0.328195
0.35954
0.391618
0.424776
0.0606689
0.0982847
0.129907
0.154966
0.176735
0.198669
0.223748
0.251106
0.279348
0.308116
0.337719
0.36853
0.0463294
0.0702299
0.0989194
0.121314
0.139512
0.157472
0.179045
0.203299
0.228451
0.253963
0.280097
0.30732
0.0329157
0.045057
0.0678473
0.0845668
0.0972279
0.109883
0.12709
0.147487
0.16856
0.189582
0.210573
0.232239
0.0145858
0.0187697
0.0290683
0.0368523
0.0417842
0.0463034
0.053261
0.0625445
0.0725825
0.0821958
0.0917378
0.101329
0.850661
0.854039
0.851139
0.837116
0.808586
0.767361
0.718299
0.664943
0.606043
0.529892
0.405446
0.237129
0.784794
0.795903
0.799811
0.790934
0.763121
0.717194
0.656753
0.584277
0.496735
0.380735
0.205167
0.0737321
0.726436
0.744328
0.753628
0.749935
0.724187
0.6757
0.606521
0.519157
0.412923
0.286554
0.146866
0.0612304
0.671925
0.695788
0.70978
0.710931
0.688638
0.640302
0.567058
0.472325
0.360598
0.244186
0.140497
0.0621145
0.619211
0.647715
0.665898
0.671416
0.653752
0.608364
0.535799
0.440747
0.332577
0.229458
0.146271
0.0634888
0.566832
0.598343
0.620243
0.62969
0.617226
0.576915
0.508823
0.418432
0.317854
0.225157
0.151247
0.0643671
0.513687
0.546609
0.571267
0.584213
0.576919
0.543008
0.482037
0.399243
0.307598
0.223199
0.152908
0.0633516
0.458679
0.491511
0.517667
0.533454
0.530699
0.503833
0.451717
0.378019
0.295668
0.218286
0.150226
0.0588619
0.400319
0.431626
0.457847
0.475432
0.476359
0.456131
0.414003
0.350405
0.27756
0.206755
0.140154
0.0520978
0.335573
0.363773
0.388482
0.406283
0.40985
0.395191
0.363299
0.311748
0.248741
0.184746
0.119994
0.0423514
0.254757
0.27775
0.298553
0.31446
0.319367
0.309628
0.286901
0.251262
0.200787
0.14483
0.0845422
0.0299248
0.111486
0.123039
0.134234
0.14398
0.149468
0.147884
0.140422
0.126701
0.10718
0.0803296
0.04945
0.0193213
0.383816
0.552748
0.565826
0.578105
0.602972
0.640105
0.685703
0.73412
0.778383
0.810935
0.832188
0.844414
0.262538
0.440342
0.473254
0.494069
0.521542
0.558352
0.601789
0.647222
0.689412
0.723463
0.749289
0.769029
0.205525
0.356812
0.397031
0.42298
0.451988
0.487875
0.528963
0.571647
0.612074
0.647201
0.676938
0.702832
0.166898
0.293011
0.33451
0.362735
0.392196
0.426702
0.465396
0.505534
0.544352
0.579974
0.612416
0.642725
0.137522
0.242323
0.282249
0.311081
0.34013
0.372862
0.409115
0.446811
0.483956
0.519424
0.553342
0.58642
0.113494
0.200016
0.237502
0.266009
0.293995
0.324593
0.358314
0.393572
0.428866
0.463535
0.497794
0.532144
0.0930415
0.162966
0.198173
0.22586
0.252273
0.280383
0.311428
0.344182
0.377389
0.410648
0.444233
0.478545
0.0759259
0.129187
0.162698
0.18927
0.213642
0.238885
0.267065
0.297191
0.328044
0.359314
0.391311
0.424406
0.0606505
0.0983155
0.129943
0.154992
0.176748
0.198677
0.223738
0.251058
0.279239
0.307939
0.337466
0.368225
0.0463234
0.0702701
0.0989694
0.121349
0.139532
0.157489
0.179056
0.203282
0.228382
0.253833
0.279901
0.307093
0.0329184
0.045095
0.0679005
0.0845984
0.0972416
0.109899
0.127113
0.147497
0.168529
0.189497
0.210431
0.232112
0.0145845
0.0187817
0.0290917
0.0368633
0.0417833
0.0463024
0.053268
0.0625689
0.0725898
0.0821777
0.0916967
0.101302
)
;

boundaryField
{
    rotor
    {
        type            kqRWallFunction;
        value           nonuniform List<scalar> 
192
(
0.0418849
0.0535384
0.061128
0.0585326
0.0551122
0.0661364
0.165305
0.323455
0.398394
0.434043
0.460258
0.472447
0.477791
0.47433
0.468442
0.45789
0.440715
0.417508
0.38766
0.34991
0.30309
0.248118
0.190104
0.153799
0.0421893
0.0538631
0.0614283
0.0588401
0.055315
0.0661811
0.164565
0.322764
0.39785
0.433497
0.459741
0.471946
0.477309
0.473859
0.468001
0.457471
0.440331
0.417154
0.387344
0.349634
0.302859
0.247934
0.189956
0.153674
0.0422137
0.0538799
0.0614019
0.0587523
0.0553025
0.0664728
0.166615
0.324407
0.399034
0.434703
0.460879
0.473058
0.47836
0.474871
0.468924
0.458324
0.441085
0.417824
0.38792
0.350114
0.30324
0.248217
0.190159
0.153841
0.042203
0.0538804
0.0614496
0.0588618
0.055341
0.0662142
0.164692
0.322865
0.397904
0.433524
0.459753
0.471952
0.477315
0.473872
0.468023
0.457502
0.44037
0.417201
0.387396
0.34969
0.302918
0.24799
0.19002
0.153731
0.0418849
0.0863204
0.123441
0.159251
0.180381
0.186101
0.181148
0.174913
0.173704
0.182879
0.210452
0.597172
0.153731
0.343215
0.478778
0.589997
0.680848
0.770399
0.853763
0.951213
1.05587
1.16463
1.28882
1.46512
0.0421893
0.0864363
0.123551
0.159237
0.180271
0.185961
0.181002
0.17477
0.173584
0.182758
0.210338
0.597198
0.153799
0.343366
0.478992
0.590273
0.681166
0.770753
0.854144
0.951616
1.0563
1.16506
1.28926
1.46556
0.0422137
0.0865518
0.123942
0.159713
0.180883
0.186479
0.181421
0.175133
0.173818
0.182931
0.210458
0.597246
0.153674
0.343116
0.478682
0.589903
0.680759
0.770313
0.853679
0.951129
1.0558
1.16456
1.28877
1.46509
0.042203
0.086467
0.123588
0.159271
0.180283
0.185961
0.180993
0.174749
0.173567
0.182752
0.210361
0.5974
0.153841
0.343463
0.479135
0.59046
0.681381
0.770996
0.854409
0.951905
1.05662
1.16541
1.28964
1.46602
)
;
    }
    stator
    {
        type            kqRWallFunction;
        value           nonuniform List<scalar> 
192
(
0.111538
0.123095
0.13429
0.144033
0.149521
0.147935
0.14047
0.126745
0.107213
0.0803494
0.0494533
0.0193192
0.014583
0.0187718
0.0290721
0.0368487
0.0417772
0.0463026
0.0532716
0.0625692
0.0726126
0.0822302
0.0917763
0.10137
0.111524
0.123075
0.134269
0.144012
0.149497
0.147909
0.140444
0.126718
0.107191
0.0803341
0.049449
0.0193186
0.0146339
0.0188414
0.0291888
0.0369949
0.041937
0.0464521
0.053399
0.0626665
0.0726948
0.0822965
0.0918258
0.101403
0.111557
0.123101
0.134289
0.144004
0.149488
0.147884
0.140429
0.126702
0.107178
0.0803275
0.0494478
0.019317
0.0145858
0.0187697
0.0290683
0.0368523
0.0417842
0.0463034
0.053261
0.0625445
0.0725825
0.0821958
0.0917378
0.101329
0.111486
0.123039
0.134234
0.14398
0.149468
0.147884
0.140422
0.126701
0.10718
0.0803296
0.04945
0.0193213
0.0145845
0.0187817
0.0290917
0.0368633
0.0417833
0.0463024
0.053268
0.0625689
0.0725898