/*--------------------------------*- C++ -*----------------------------------*\
| =========                 |                                                 |
| \\      /  F ield         | OpenFOAM: The Open Source CFD Toolbox           |
|  \\    /   O peration     | Version:  4.0                                   |
|   \\  /    A nd           | Web:      www.OpenFOAM.org                      |
|    \\/     M anipulation  |                                                 |
\*---------------------------------------------------------------------------*/
FoamFile
{
    version     2.0;
    format      ascii;
    class       volScalarField;
    location    "250";
    object      p;
}
// * * * * * * * * * * * * * * * * * * * * * * * * * * * * * * * * * * * * * //

dimensions      [0 2 -2 0 0 0 0];

internalField   nonuniform List<scalar> 
3072
(
-0.0012878
-0.150301
-0.294099
-0.373179
-0.38037
-0.373057
-0.278482
-0.0546369
-0.0402186
-0.390715
-0.784483
-1.15142
0.658128
0.420599
0.3031
0.284325
0.397228
0.612564
0.987108
1.75579
2.19995
2.3887
2.48895
2.54881
1.43687
1.17019
1.12456
1.22873
1.56553
1.99563
2.39179
2.78962
3.06497
3.25585
3.38756
3.45534
2.47513
2.31346
2.40464
2.7032
3.11676
3.52281
3.89724
4.22098
4.45816
4.648
4.80154
4.9235
3.55373
3.52771
3.73945
4.10945
4.52186
4.90534
5.25747
5.55185
5.77429
5.9472
6.07831
6.17906
4.59903
4.70684
4.99972
5.40905
5.82831
6.20707
6.52184
6.77456
6.96846
7.11824
7.23196
7.3182
5.60708
5.85909
6.21579
6.65546
7.07834
7.4338
7.71114
7.92374
8.08232
8.20105
8.28952
8.35557
6.63746
7.02362
7.42516
7.87326
8.27602
8.59221
8.82495
8.99201
9.10968
9.19316
9.25322
9.2973
7.70775
8.22619
8.64851
9.07652
9.42983
9.68573
9.85932
9.97296
10.0455
10.0921
10.1235
10.1461
8.83271
9.45977
9.88282
10.2604
10.5375
10.7104
10.8103
10.863
10.8873
10.8967
10.9009
10.904
10.0033
10.7647
11.1379
11.3894
11.5618
11.6346
11.6532
11.6437
11.6215
11.5978
11.58
11.5685
11.0261
12.0977
12.3158
12.3586
12.4032
12.384
12.3346
12.2767
12.222
12.1785
12.1513
12.1354
-1.3169
-1.33084
-1.14435
-0.812517
-0.330191
0.257722
0.925658
1.59737
2.20205
2.70824
2.96508
2.7858
2.58011
2.62643
2.69485
2.80411
2.94962
3.12534
3.32387
3.51163
3.67577
3.93923
3.89742
3.14733
3.51089
3.58018
3.67844
3.80604
3.94732
4.0945
4.22937
4.31518
4.32793
4.33531
4.19436
3.12571
5.02349
5.1084
5.18488
5.25242
5.30879
5.34674
5.35553
5.30427
5.16102
4.96367
4.68141
3.32644
6.25799
6.32048
6.36944
6.40391
6.42152
6.41489
6.37153
6.27384
6.08195
5.79853
5.45511
3.92317
7.38349
7.43244
7.46709
7.48681
7.48948
7.46915
7.41306
7.3083
7.12443
6.83794
6.48634
4.9734
8.40481
8.44114
8.46675
8.48194
8.48548
8.47322
8.43721
8.36531
8.23535
8.0199
7.75819
6.43094
9.33063
9.35658
9.37773
9.39562
9.41077
9.42197
9.42523
9.41338
9.37705
9.29609
9.21923
8.27011
10.1646
10.1818
10.2007
10.224
10.2545
10.2951
10.3463
10.4073
10.4833
10.5739
10.7707
10.4032
10.9099
10.9198
10.9368
10.9646
11.0081
11.0753
11.1721
11.3056
11.4927
11.7609
12.3415
12.742
11.5661
11.5705
11.5856
11.6156
11.6662
11.7502
11.8789
12.0674
12.3378
12.7555
13.7501
15.0683
12.1328
12.1357
12.1497
12.179
12.2302
12.3171
12.4535
12.6614
12.9553
13.4267
14.5219
16.5102
-0.00314171
-0.151777
-0.295694
-0.375214
-0.382717
-0.375429
-0.28105
-0.0570114
-0.0404714
-0.389694
-0.782828
-1.14951
0.65707
0.418983
0.301098
0.281952
0.394344
0.609323
0.982122
1.75107
2.19724
2.38647
2.48767
2.54783
1.43633
1.16909
1.12313
1.22674
1.56283
1.99289
2.38899
2.78699
3.06298
3.25415
3.38641
3.45448
2.47501
2.31289
2.40343
2.70123
3.11443
3.52041
3.89487
4.21886
4.45639
4.64645
4.80022
4.92228
3.5535
3.5272
3.73823
4.10767
4.51981
4.90327
5.2555
5.55006
5.77275
5.94581
6.0771
6.17792
4.59875
4.70623
4.99857
5.40745
5.82655
6.20537
6.52023
6.77314
6.96715
7.11709
7.23087
7.31719
5.60678
5.8585
6.2147
6.65403
7.07684
7.43237
7.70985
7.92256
8.08128
8.20007
8.28862
8.35469
6.63715
7.02303
7.42417
7.87201
8.27471
8.59099
8.82385
8.99104
9.1088
9.19236
9.25245
9.29655
7.70741
8.22567
8.6476
9.07543
9.42871
9.6847
9.85841
9.97217
10.0448
10.0914
10.1228
10.1454
8.83239
9.4592
9.88199
10.2594
10.5365
10.7095
10.8095
10.8624
10.8868
10.8962
10.9004
10.9034
10.0029
10.7642
11.137
11.3885
11.561
11.6339
11.6527
11.6432
11.6212
11.5974
11.5796
11.5681
11.0258
12.0972
12.3151
12.3579
12.4025
12.3834
12.3342
12.2763
12.2217
12.1781
12.1509
12.1349
-1.31496
-1.32908
-1.14291
-0.811518
-0.329712
0.257627
0.924968
1.59608
2.20022
2.70587
2.96249
2.78322
2.57946
2.62579
2.69422
2.80334
2.94869
3.12418
3.32244
3.50994
3.67384
3.93694
3.89501
3.14518
3.5102
3.57953
3.67774
3.80521
3.94634
4.09334
4.22803
4.31367
4.3263
4.33355
4.19255
3.12426
5.02239
5.10736
5.18384
5.25135
5.30765
5.34553
5.35423
5.30288
5.15958
4.96224
4.67998
3.32546
6.25692
6.31945
6.36842
6.40286
6.42042
6.41374
6.37033
6.27258
6.08067
5.79726
5.45391
3.92236
7.38251
7.43148
7.46612
7.48581
7.48844
7.46805
7.41192
7.30712
7.12322
6.83671
6.48515
4.97255
8.40396
8.44028
8.46585
8.48101
8.48448
8.47217
8.4361
8.36414
8.23414
8.01867
7.75689
6.42987
9.32987
9.35579
9.3769
9.39472
9.40981
9.42094
9.42414
9.41222
9.37581
9.29471
9.21775
8.26868
10.1639
10.1811
10.2
10.2231
10.2536
10.2941
10.3452
10.4062
10.482
10.5724
10.7689
10.4013
10.9093
10.9191
10.9361
10.9638
11.0072
11.0743
11.171
11.3045
11.4914
11.7594
12.3395
12.7398
11.5655
11.5699
11.5849
11.6147
11.6653
11.7492
11.8778
12.0662
12.3365
12.754
13.7481
15.0656
12.1322
12.135
12.1489
12.1781
12.2293
12.3161
12.4525
12.6603
12.9541
13.4252
14.5199
16.5074
-0.00518214
-0.153848
-0.29773
-0.376808
-0.383879
-0.376605
-0.281789
-0.0579932
-0.0459256
-0.396896
-0.790233
-1.1563
0.655074
0.416953
0.299443
0.28103
0.394689
0.609962
0.987659
1.75625
2.19794
2.38662
2.48628
2.54636
1.43514
1.16854
1.12315
1.22779
1.56572
1.99549
2.3917
2.78915
3.06371
3.25448
3.38578
3.45355
2.47492
2.31388
2.40589
2.70495
3.11795
3.52336
3.89741
4.22063
4.45735
4.64699
4.80039
4.92235
3.55367
3.52852
3.74097
4.111
4.52292
4.90587
5.25757
5.55156
5.77367
5.9464
6.07737
6.17809
4.59848
4.70748
5.0008
5.41001
5.82882
6.20718
6.52163
6.77412
6.96785
7.11753
7.23116
7.31734
5.60589
5.85934
6.21639
6.65588
7.07837
7.43347
7.71063
7.9231
8.08162
8.2003
8.28873
8.35474
6.63601
7.02356
7.42533
7.87323
8.2756
8.59155
8.82417
8.9912
9.10885
9.19233
9.25238
9.29644
7.7063
8.22582
8.64831
9.07605
9.42904
9.68477
9.85832
9.97198
10.0445
10.0911
10.1226
10.1452
8.83141
9.45929
9.88237
10.2596
10.5364
10.7092
10.8091
10.8618
10.8862
10.8957
10.8999
10.903
10.0021
10.7641
11.1372
11.3883
11.5605
11.6332
11.6519
11.6424
11.6204
11.5967
11.579
11.5675
11.0251
12.097
12.3149
12.3574
12.4018
12.3826
12.3332
12.2754
12.2208
12.1774
12.1502
12.1343
-1.32095
-1.33404
-1.14687
-0.814424
-0.331666
0.256605
0.924746
1.59659
2.20131
2.7075
2.96435
2.78509
2.57779
2.6245
2.6932
2.8028
2.94852
3.12445
3.3231
3.51092
3.67509
3.9385
3.89665
3.14657
3.50917
3.57865
3.67707
3.80485
3.94628
4.09359
4.22855
4.31441
4.32719
4.33456
4.19352
3.1249
5.0223
5.10722
5.18373
5.25135
5.30782
5.34586
5.35472
5.30352
5.16029
4.96295
4.68063
3.32569
6.25697
6.31947
6.36846
6.40297
6.42063
6.41405
6.37074
6.27309
6.08124
5.79786
5.45442
3.92254
7.38259
7.43154
7.46622
7.48596
7.48865
7.46835
7.4123
7.30758
7.12377
6.83735
6.48579
4.97291
8.40396
8.44029
8.46591
8.48112
8.48467
8.47244
8.43646
8.3646
8.23472
8.01937
7.75774
6.43058
9.32976
9.35572
9.37688
9.39478
9.40995
9.42118
9.42447
9.41267
9.37641
9.29559
9.21887
8.26986
10.1637
10.181
10.1999
10.2231
10.2537
10.2943
10.3455
10.4066
10.4826
10.5733
10.7703
10.403
10.9089
10.9188
10.9359
10.9637
11.0072
11.0745
11.1713
11.3049
11.492
11.7603
12.3411
12.7418
11.5651
11.5695
11.5846
11.6146
11.6653
11.7493
11.878
12.0665
12.337
12.7548
13.7498
15.068
12.1317
12.1346
12.1487
12.178
12.2293
12.3162
12.4527
12.6606
12.9545
13.4259
14.5214
16.51
-0.0038289
-0.152527
-0.296502
-0.376029
-0.383537
-0.376264
-0.281786
-0.0576406
-0.0414155
-0.391078
-0.784534
-1.15146
0.656303
0.418076
0.300162
0.281032
0.393522
0.608607
0.981772
1.75105
2.1971
2.38627
2.48729
2.54734
1.43553
1.16809
1.1221
1.22579
1.56205
1.99222
2.3884
2.7865
3.06245
3.25359
3.38578
3.45379
2.4743
2.31205
2.40256
2.7005
3.11389
3.52
3.89453
4.21852
4.45603
4.64607
4.79981
4.92188
3.55296
3.52656
3.73764
4.10723
4.51953
4.90306
5.25532
5.54987
5.77254
5.94557
6.07683
6.17765
4.59835
4.70575
4.99819
5.40723
5.82644
6.20531
6.52018
6.77306
6.96704
7.11694
7.2307
7.31701
5.60647
5.85812
6.21446
6.65397
7.07689
7.43245
7.70991
7.92257
8.08124
8.19999
8.2885
8.35457
6.63689
7.02271
7.42402
7.87205
8.27488
8.59117
8.82398
8.9911
9.1088
9.1923
9.25236
9.29645
7.70717
8.22543
8.64752
9.07553
9.4289
9.68488
9.85853
9.97221
10.0448
10.0913
10.1227
10.1453
8.83217
9.45899
9.88193
10.2595
10.5367
10.7097
10.8096
10.8623
10.8867
10.8961
10.9002
10.9033
10.0027
10.7641
11.137
11.3885
11.5611
11.6339
11.6526
11.6431
11.6209
11.5972
11.5794
11.5678
11.0256
12.0971
12.3151
12.3578
12.4025
12.3833
12.3339
12.276
12.2214
12.1778
12.1506
12.1346
-1.31698
-1.33109
-1.14478
-0.813177
-0.331067
0.25663
0.924388
1.59593
2.2005
2.70655
2.96335
2.78405
2.57887
2.62516
2.69359
2.80278
2.94824
3.12388
3.32235
3.51005
3.67416
3.93756
3.89577
3.14575
3.50948
3.57884
3.67712
3.8047
3.94596
4.09311
4.22795
4.31374
4.32648
4.33385
4.19297
3.12441
5.022
5.10699
5.18353
5.25109
5.30747
5.34542
5.3542
5.30294
5.1597
4.96237
4.68018
3.32534
6.25666
6.3192
6.36821
6.4027
6.42032
6.4137
6.37034
6.27265
6.08078
5.79737
5.45402
3.92218
7.38234
7.43133
7.466
7.48573
7.48842
7.46809
7.412
7.30726
7.12338
6.83686
6.48531
4.97244
8.40384
8.44018
8.46579
8.48099
8.48453
8.47228
8.43627
8.36437
8.2344
8.01893
7.75716
6.42996
9.32977
9.35572
9.37686
9.39475
9.4099
9.42111
9.42439
9.41254
9.3762
9.29513
9.21821
8.26906
10.1638
10.1811
10.1999
10.2232
10.2537
10.2943
10.3455
10.4066
10.4825
10.573
10.7696
10.4021
10.9092
10.919
10.936
10.9639
11.0073
11.0746
11.1714
11.305
11.4921
11.7601
12.3404
12.7409
11.5654
11.5698
11.5848
11.6148
11.6654
11.7494
11.8782
12.0667
12.3372
12.7549
13.7492
15.067
12.132
12.1349
12.1489
12.1782
12.2295
12.3163
12.4529
12.6608
12.9548
13.4261
14.521
16.5089
13.0859
13.3134
13.2128
13.0719
12.9841
12.8961
12.8065
12.7258
12.6628
12.6212
12.6041
12.5996
13.4595
13.3343
13.3253
13.2599
13.2018
13.1315
13.0555
12.9899
12.948
12.933
12.9471
12.9716
13.582
13.491
13.4541
13.3794
13.3094
13.2375
13.1728
13.1295
13.1203
13.1483
13.2112
13.281
13.6563
13.5719
13.4966
13.4052
13.3174
13.2382
13.1815
13.1634
13.1987
13.2947
13.4438
13.6054
12.61
12.6175
12.6332
12.6596
12.7048
12.7818
12.9025
13.0923
13.3412
13.6882
14.0749
15.0554
13.0103
13.0281
13.0482
13.0687
13.1004
13.1557
13.2431
13.3911
13.5786
13.8371
13.9685
14.255
13.3607
13.3879
13.4125
13.4218
13.4311
13.4517
13.4904
13.577
13.6897
13.874
13.927
14.0121
13.7544
13.779
13.8029
13.7877
13.7559
13.7167
13.6774
13.6665
13.6722
13.7608
13.7705
13.8534
13.0859
13.3129
13.212
13.0712
12.9834
12.8956
12.8061
12.7255
12.6625
12.6208
12.6037
12.5991
13.4598
13.3338
13.3247
13.2593
13.2012
13.1311
13.0551
12.9896
12.9478
12.9327
12.9467
12.971
13.5825
13.4909
13.4536
13.379
13.309
13.2372
13.1726
13.1292
13.1201
13.148
13.2107
13.2804
13.657
13.5721
13.4965
13.405
13.3172
13.238
13.1813
13.1633
13.1985
13.2945
13.4434
13.6047
12.6094
12.6168
12.6324
12.6587
12.7039
12.7808
12.9015
13.0912
13.34
13.6868
14.0735
15.0536
13.0096
13.0272
13.0472
13.0677
13.0994
13.1547
13.2421
13.39
13.5775
13.836
13.9672
14.2539
13.3598
13.3868
13.4113
13.4207
13.43
13.4506
13.4894
13.576
13.6887
13.8729
13.9261
14.0111
13.7534
13.7776
13.8016
13.7863
13.7546
13.7155
13.6764
13.6656
13.6714
13.76
13.7696
13.8526
13.0849
13.3126
13.2118
13.0707
12.9828
12.8948
12.8053
12.7246
12.6617
12.6201
12.6031
12.5986
13.459
13.3335
13.3244
13.259
13.2008
13.1305
13.0545
12.989
12.9472
12.9322
12.9462
12.9706
13.5818
13.4904
13.4533
13.3787
13.3086
13.2368
13.1722
13.1289
13.1197
13.1476
13.2103
13.2801
13.6563
13.5715
13.496
13.4047
13.317
13.2379
13.1813
13.1632
13.1985
13.2943
13.4431
13.6044
12.609
12.6165
12.6322
12.6586
12.7039
12.7809
12.9017
13.0915
13.3403
13.6873
14.0742
15.055
13.0092
13.027
13.0471
13.0677
13.0995
13.1548
13.2423
13.3903
13.5778
13.8363
13.9677
14.2546
13.3596
13.3867
13.4113
13.4208
13.4301
13.4508
13.4896
13.5763
13.689
13.8733
13.9263
14.0115
13.7531
13.7775
13.8017
13.7865
13.7548
13.7157
13.6767
13.6658
13.6716
13.7602
13.7699
13.8528
13.0857
13.3127
13.2118
13.071
12.9832
12.8953
12.8057
12.7251
12.6621
12.6205
12.6034
12.5988
13.4595
13.3336
13.3245
13.2591
13.2009
13.1307
13.0547
12.9891
12.9473
12.9323
12.9463
12.9707
13.5821
13.4905
13.4532
13.3786
13.3085
13.2367
13.1721
13.1287
13.1196
13.1475
13.2103
13.2801
13.6565
13.5715
13.4959
13.4044
13.3166
13.2375
13.1808
13.1627
13.198
13.294
13.443
13.6045
12.6092
12.6167
12.6324
12.6588
12.704
12.781
12.9018
13.0917
13.3406
13.6876
14.0745
15.0546
13.0094
13.0272
13.0472
13.0678
13.0996
13.155
13.2424
13.3905
13.578
13.8366
13.968
14.2543
13.3597
13.3868
13.4115
13.4209
13.4302
13.4509
13.4897
13.5764
13.6891
13.8734
13.9266
14.0113
13.7534
13.7778
13.8019
13.7866
13.755
13.7159
13.6768
13.6659
13.6716
13.7602
13.7698
13.8526
13.7188
13.6551
13.5764
13.4892
13.4012
13.3206
13.2611
13.2382
13.2674
13.3582
13.4982
13.6691
13.788
13.731
13.6623
13.588
13.5111
13.4368
13.3769
13.3458
13.3555
13.4085
13.5063
13.6359
13.8403
13.7881
13.7261
13.6597
13.5884
13.5149
13.4507
13.4128
13.4029
13.4372
13.5196
13.6336
13.8794
13.8311
13.7733
13.7105
13.6399
13.562
13.4922
13.4426
13.4174
13.4449
13.5275
13.5973
13.8772
13.9227
13.9692
13.961
13.9326
13.8879
13.8356
13.7921
13.756
13.7731
13.7496
13.7958
13.8703
13.9112
13.9705
13.9778
13.9707
13.9512
13.9271
13.9077
13.8906
13.8952
13.8672
13.862
13.923
13.9347
13.9953
14.0098
14.0122
14.004
13.9912
13.9792
13.9655
13.9596
13.9294
13.906
14.0726
13.9995
14.0333
14.0461
14.0499
14.0459
14.0372
14.0262
14.0112
13.9972
13.9658
13.9356
13.7195
13.6553
13.5765
13.4891
13.4011
13.3204
13.261
13.2381
13.2673
13.358
13.4979
13.6686
13.7888
13.7313
13.6624
13.588
13.5111
13.4367
13.3769
13.3458
13.3554
13.4084
13.5061
13.6355
13.841
13.7884
13.7263
13.6597
13.5883
13.5148
13.4507
13.4128
13.4029
13.4372
13.5196
13.6333
13.8801
13.8314
13.7734
13.7106
13.6398
13.562
13.4921
13.4426
13.4175
13.445
13.5276
13.5973
13.8763
13.9215
13.9679
13.9597
13.9313
13.8867
13.8346
13.7912
13.7552
13.7723
13.7489
13.7951
13.8695
13.9101
13.9694
13.9766
13.9696
13.9501
13.9261
13.9069
13.8899
13.8946
13.8664
13.8614
13.9224
13.9338
13.9942
14.0087
14.0111
14.003
13.9903
13.9784
13.9648
13.9589
13.9288
13.9053
14.0722
13.9986
14.0323
14.045
14.0489
14.045
14.0363
14.0255
14.0104
13.9966
13.9651
13.935
13.7188
13.6547
13.576
13.4887
13.4008
13.3203
13.261
13.2382
13.2673
13.3579
13.4977
13.6683
13.7881
13.7307
13.6619
13.5876
13.5108
13.4365
13.3767
13.3457
13.3553
13.4082
13.5059
13.6352
13.8403
13.7878
13.7257
13.6592
13.588
13.5146
13.4505
13.4126
13.4027
13.4369
13.5192
13.633
13.8794
13.8307
13.7729
13.7101
13.6394
13.5616
13.4918
13.4423
13.4171
13.4446
13.5271
13.5969
13.876
13.9214
13.968
13.9598
13.9315
13.8869
13.8348
13.7914
13.7554
13.7725
13.749
13.7952
13.8692
13.91
13.9693
13.9767
13.9697
13.9503
13.9263
13.907
13.89
13.8946
13.8666
13.8614
13.922
13.9336
13.9942
14.0087
14.0112
14.003
13.9903
13.9784
13.9649
13.959
13.9288
13.9054
14.0717
13.9984
14.0322
14.045
14.0489
14.045
14.0363
14.0255
14.0105
13.9966
13.9651
13.935
13.7189
13.6547
13.5759
13.4885
13.4004
13.3198
13.2604
13.2376
13.2668
13.3575
13.4975
13.6683
13.7882
13.7307
13.6618
13.5874
13.5104
13.4361
13.3763
13.3452
13.3549
13.4079
13.5057
13.6351
13.8404
13.7878
13.7256
13.6591
13.5877
13.5142
13.4501
13.4122
13.4024
13.4366
13.519
13.6329
13.8794
13.8308
13.7728
13.7099
13.6392
13.5614
13.4915
13.442
13.4169
13.4444
13.527
13.5967
13.8762
13.9216
13.9681
13.96
13.9316
13.887
13.8349
13.7915
13.7554
13.7725
13.749
13.7948
13.8693
13.9101
13.9695
13.9768
13.9698
13.9503
13.9263
13.9071
13.8901
13.8948
13.8667
13.8611
13.922
13.9337
13.9942
14.0088
14.0112
14.0031
13.9904
13.9785
13.965
13.9592
13.9291
13.9053
14.0716
13.9985
14.0322
14.0451
14.049
14.045
14.0364
14.0255
14.0106
13.9968
13.9654
13.935
13.9084
13.8625
13.8067
13.7442
13.6704
13.5871
13.5085
13.4347
13.3962
13.4011
13.4598
13.3902
13.9288
13.8839
13.8284
13.7636
13.6845
13.5957
13.4958
13.404
13.3511
13.3352
13.3948
13.3961
13.9425
13.8973
13.8409
13.7723
13.6878
13.5865
13.4706
13.37
13.3061
13.2887
13.3396
13.3772
13.9513
13.905
13.8471
13.7741
13.683
13.5701
13.4482
13.3404
13.2735
13.2609
13.308
13.3643
13.9569
13.9093
13.8495
13.7725
13.675
13.5566
13.4304
13.3203
13.2553
13.2487
13.2988
13.3654
13.9607
13.9119
13.8504
13.7705
13.6687
13.5475
13.4194
13.3109
13.2504
13.2509
13.3094
13.3795
13.9639
13.9144
13.8517
13.7702
13.666
13.5437
13.4159
13.311
13.2561
13.2637
13.3314
13.4041
13.9673
13.9179
13.8549
13.7729
13.6681
13.546
13.4196
13.3188
13.2692
13.2837
13.3598
13.4336
13.972
13.9237
13.8615
13.7804
13.676
13.5552
13.4297
13.3325
13.2864
13.3062
13.3881
13.4633
13.9799
13.9345
13.8751
13.7964
13.6939
13.5738
13.4478
13.3514
13.3043
13.3255
13.41
13.4887
13.993
13.9532
13.8995
13.8259
13.7266
13.6067
13.4772
13.3771
13.3211
13.3388
13.4261
13.5041
14.0031
13.9684
13.9209
13.8539
13.7606
13.6431
13.5153
13.4011
13.3421
13.3536
13.4367
13.5082
14.371
14.1372
14.0804
14.0805
14.0811
14.0777
14.0701
14.0586
14.0418
14.0229
13.9909
13.958
14.3574
14.1948
14.1154
14.107
14.1059
14.1017
14.0938
14.0812
14.0626
14.0406
14.0086
13.9745
14.3181
14.1964
14.1386
14.1267
14.1249
14.1201
14.1112
14.0969
14.0769
14.0527
14.0208
13.9861
14.2785
14.1857
14.1524
14.141
14.1395
14.1341
14.124
14.1081
14.0865
14.0609
14.029
13.994
14.2458
14.1762
14.1607
14.1514
14.1506
14.1449
14.1335
14.1159
14.0931
14.0663
14.0344
13.9992
14.2233
14.1704
14.166
14.159
14.159
14.153
14.1404
14.1214
14.0974
14.0699
14.0381
14.0028
14.2119
14.169
14.17
14.1648
14.1651
14.159
14.1452
14.1248
14.1
14.0722
14.0407
14.0055
14.2093
14.1731
14.1733
14.1691
14.1692
14.1628
14.148
14.1266
14.1014
14.0736
14.0427
14.0082
14.2128
14.1822
14.1765
14.1717
14.1706
14.1641
14.1487
14.1267
14.1015
14.0745
14.0447
14.0115
14.2197
14.1943
14.1796
14.1712
14.1679
14.1614
14.1459
14.1244
14.1002
14.075
14.0474
14.0166
14.2289
14.2058
14.1827
14.1678
14.1612
14.1536
14.1386
14.1186
14.0971
14.075
14.0511
14.0246
14.2394
14.2148
14.1849
14.1658
14.1559
14.1462
14.1313
14.1133
14.0942
14.0746
14.0538
14.0307
13.9089
13.8628
13.8068
13.7443
13.6704
13.5871
13.5085
13.4348
13.3963
13.4012
13.4599
13.3902
13.9293
13.8841
13.8285
13.7637
13.6846
13.5957
13.4958
13.4041
13.3512
13.3354
13.395
13.3961
13.9428
13.8976
13.8411
13.7724
13.6878
13.5865
13.4706
13.3701
13.3063
13.289
13.3398
13.3773
13.9516
13.9053
13.8473
13.7742
13.6831
13.5701
13.4483
13.3405
13.2737
13.2612
13.3082
13.3644
13.9572
13.9096
13.8497
13.7726
13.6751
13.5567
13.4305
13.3204
13.2556
13.249
13.2991
13.3656
13.961
13.9122
13.8507
13.7707
13.6688
13.5476
13.4195
13.311
13.2507
13.2512
13.3096
13.3797
13.9641
13.9147
13.852
13.7704
13.6662
13.5438
13.416
13.3112
13.2564
13.264
13.3316
13.4043
13.9676
13.9182
13.8552
13.7731
13.6682
13.5461
13.4197
13.319
13.2695
13.284
13.36
13.4338
13.9723
13.924
13.8618
13.7806
13.6762
13.5553
13.4299
13.3327
13.2866
13.3065
13.3883
13.4635
13.9803
13.9349
13.8754
13.7966
13.6941
13.574
13.448
13.3516
13.3045
13.3257
13.4101
13.4888
13.9933
13.9536
13.8998
13.8261
13.7268
13.6068
13.4773
13.3773
13.3213
13.3391
13.4263
13.5042
14.0034
13.9687
13.9212
13.8541
13.7607
13.6433
13.5155
13.4013
13.3423
13.3538
13.4369
13.5083
14.3709
14.1365
14.0795
14.0795
14.0801
14.0768
14.0692
14.0579
14.0411
14.0222
13.9903
13.9573
14.3572
14.1941
14.1146
14.1061
14.105
14.1008
14.093
14.0804
14.0619
14.0399
14.0079
13.9738
14.3177
14.1957
14.1378
14.1258
14.124
14.1192
14.1104
14.0962
14.0761
14.052
14.0201
13.9854
14.278
14.185
14.1516
14.1401
14.1386
14.1332
14.1232
14.1073
14.0858
14.0602
14.0283
13.9932
14.2452
14.1755
14.1599
14.1505
14.1497
14.144
14.1327
14.1152
14.0923
14.0656
14.0337
13.9984
14.2227
14.1696
14.1652
14.1582
14.1581
14.1522
14.1396
14.1206
14.0966
14.0692
14.0373
14.002
14.2113
14.1683
14.1691
14.164
14.1643
14.1582
14.1444
14.1241
14.0993
14.0714
14.0399
14.0047
14.2087
14.1724
14.1725
14.1683
14.1683
14.162
14.1472
14.1259
14.1006
14.0729
14.0419
14.0074
14.2122
14.1815
14.1757
14.1709
14.1698
14.1633
14.1479
14.126
14.1008
14.0737
14.0439
14.0107
14.2191
14.1936
14.1789
14.1704
14.1671
14.1605
14.1451
14.1236
14.0994
14.0742
14.0466
14.0158
14.2284
14.2051
14.182
14.167
14.1603
14.1528
14.1378
14.1178
14.0963
14.0741
14.0503
14.0238
14.2388
14.2142
14.1842
14.165
14.1551
14.1453
14.1304
14.1124
14.0934
14.0738
14.053
14.0298
13.9082
13.8621
13.8062
13.7437
13.6699
13.5867
13.5081
13.4344
13.3959
13.4007
13.4594
13.3899
13.9286
13.8834
13.8279
13.7631
13.684
13.5952
13.4954
13.4036
13.3508
13.3349
13.3944
13.3957
13.9421
13.8968
13.8404
13.7717
13.6872
13.5859
13.4702
13.3697
13.3058
13.2884
13.3392
13.3768
13.9509
13.9046
13.8466
13.7735
13.6825
13.5695
13.4479
13.34
13.2732
13.2606
13.3076
13.3639
13.9564
13.9088
13.849
13.7718
13.6745
13.5561
13.43
13.3199
13.2551
13.2484
13.2985
13.365
13.9602
13.9114
13.8499
13.7699
13.6682
13.5469
13.419
13.3105
13.2502
13.2506
13.3091
13.3791
13.9634
13.9139
13.8512
13.7696
13.6655
13.5431
13.4156
13.3106
13.2559
13.2635
13.3311
13.4037
13.9668
13.9174
13.8544
13.7723
13.6676
13.5454
13.4193
13.3184
13.269
13.2835
13.3594
13.4332
13.9715
13.9231
13.861
13.7796
13.6757
13.5544
13.4296
13.332
13.2863
13.306
13.3877
13.4629
13.9795
13.934
13.8746
13.7957
13.6934
13.5732
13.4476
13.351
13.3041
13.3252
13.4096
13.4882
13.9925
13.9527
13.899
13.8252
13.7261
13.606
13.4768
13.3767
13.3209
13.3385
13.4257
13.5036
14.0025
13.9678
13.9203
13.8532
13.76
13.6425
13.5149
13.4007
13.3418
13.3533
13.4363
13.5077
14.3701
14.1361
14.0793
14.0794
14.0801
14.0768
14.0692
14.0579
14.0411
14.0222
13.9903
13.9573
14.3564
14.1937
14.1144
14.106
14.1049
14.1008
14.093
14.0804
14.0619
14.0399
14.0079
13.9738
14.317
14.1953
14.1375
14.1257
14.124
14.1191
14.1104
14.0962
14.0761
14.052
14.0201
13.9854
14.2774
14.1846
14.1514
14.14
14.1385
14.1332
14.1232
14.1073
14.0858
14.0602
14.0283
13.9933
14.2447
14.1751
14.1597
14.1504
14.1496
14.144
14.1327
14.1151
14.0923
14.0656
14.0338
13.9985
14.2223
14.1693
14.165
14.158
14.158
14.1521
14.1396
14.1206
14.0966
14.0692
14.0374
14.0021
14.2109
14.168
14.1689
14.1638
14.1642
14.1581
14.1443
14.124
14.0993
14.0715
14.04
14.0048
14.2083
14.1721
14.1723
14.1681
14.1682
14.1619
14.1471
14.1258
14.1006
14.0729
14.042
14.0075
14.2119
14.1812
14.1755
14.1707
14.1697
14.1632
14.1478
14.1259
14.1008
14.0737
14.044
14.0108
14.2187
14.1933
14.1786
14.1702
14.167
14.1605
14.1451
14.1235
14.0995
14.0742
14.0467
14.0159
14.228
14.2048
14.1817
14.1668
14.1602
14.1527
14.1377
14.1178
14.0963
14.0742
14.0504
14.0239
14.2384
14.2138
14.1839
14.1648
14.155
14.1453
14.1304
14.1124
14.0934
14.0738
14.053
14.0299
13.9083
13.8621
13.8062
13.7436
13.6698
13.5865
13.5079
13.4342
13.3957
13.4006
13.4594
13.3898
13.9286
13.8835
13.8279
13.7631
13.6839
13.5951
13.4952
13.4035
13.3506
13.3349
13.3945
13.3957
13.9422
13.8969
13.8405
13.7718
13.6872
13.5858
13.47
13.3695
13.3056
13.2884
13.3392
13.3768
13.951
13.9047
13.8467
13.7735
13.6824
13.5695
13.4477
13.3398
13.2731
13.2606
13.3077
13.3639
13.9565
13.9089
13.8491
13.772
13.6745
13.5561
13.4298
13.3198
13.2549
13.2484
13.2985
13.3651
13.9603
13.9115
13.85
13.77
13.6682
13.5469
13.4188
13.3104
13.2501
13.2506
13.3091
13.3792
13.9635
13.914
13.8513
13.7697
13.6655
13.5431
13.4154
13.3105
13.2557
13.2634
13.3311
13.4038
13.9669
13.9175
13.8545
13.7725
13.6676
13.5454
13.4191
13.3183
13.2689
13.2834
13.3594
13.4332
13.9716
13.9233
13.8611
13.7799
13.6756
13.5547
13.4292
13.332
13.286
13.3059
13.3877
13.4629
13.9796
13.9342
13.8747
13.7959
13.6934
13.5733
13.4473
13.3509
13.3039
13.3251
13.4096
13.4883
13.9926
13.9529
13.8992
13.8254
13.7261
13.6061
13.4767
13.3767
13.3207
13.3384
13.4257
13.5036
14.0026
13.968
13.9205
13.8534
13.7601
13.6426
13.5148
13.4007
13.3417
13.3532
13.4363
13.5078
14.3699
14.1362
14.0794
14.0794
14.0801
14.0768
14.0693
14.0579
14.0411
14.0224
13.9905
13.9574
14.3563
14.1937
14.1144
14.106
14.1049
14.1008
14.093
14.0804
14.062
14.04
14.0081
13.974
14.317
14.1953
14.1376
14.1257
14.124
14.1191
14.1103
14.0962
14.0762
14.0521
14.0202
13.9857
14.2774
14.1846
14.1514
14.14
14.1385
14.1331
14.1231
14.1073
14.0858
14.0603
14.0284
13.9936
14.2447
14.1752
14.1597
14.1504
14.1496
14.1439
14.1326
14.1151
14.0923
14.0657
14.0338
13.9988
14.2223
14.1693
14.165
14.158
14.158
14.1521
14.1395
14.1205
14.0966
14.0693
14.0375
14.0024
14.2108
14.168
14.1689
14.1638
14.1642
14.158
14.1443
14.124
14.0993
14.0715
14.04
14.0051
14.2082
14.172
14.1722
14.1681
14.1682
14.1619
14.1471
14.1258
14.1006
14.073
14.0421
14.0078
14.2117
14.1811
14.1754
14.1707
14.1696
14.1632
14.1478
14.1259
14.1008
14.0738
14.0441
14.0111
14.2185
14.1932
14.1785
14.1702
14.1669
14.1604
14.145
14.1235
14.0995
14.0743
14.0468
14.0162
14.2278
14.2046
14.1816
14.1668
14.1602
14.1527
14.1377
14.1178
14.0963
14.0743
14.0506
14.0242
14.2382
14.2136
14.1838
14.1647
14.1549
14.1452
14.1304
14.1124
14.0935
14.0739
14.0532
14.0303
)
;

boundaryField
{
    rotor
    {
        type            zeroGradient;
    }
    stator
    {
        type            zeroGradient;
    }
    front
    {
        type            empty;
    }
    back
    {
        type            empty;
    }
}


// ************************************************************************* //
