/*--------------------------------*- C++ -*----------------------------------*\
| =========                 |                                                 |
| \\      /  F ield         | OpenFOAM: The Open Source CFD Toolbox           |
|  \\    /   O peration     | Version:  4.0                                   |
|   \\  /    A nd           | Web:      www.OpenFOAM.org                      |
|    \\/     M anipulation  |                                                 |
\*---------------------------------------------------------------------------*/
FoamFile
{
    version     2.0;
    format      ascii;
    class       surfaceScalarField;
    location    "250";
    object      phi;
}
// * * * * * * * * * * * * * * * * * * * * * * * * * * * * * * * * * * * * * //

dimensions      [0 3 -1 0 0 0 0];

internalField   nonuniform List<scalar> 
5952
(
5.53286e-06
-5.44209e-06
9.32328e-06
-3.79226e-06
1.20591e-05
-2.734e-06
1.26017e-05
-5.41184e-07
1.00063e-05
2.59643e-06
4.33706e-06
5.67347e-06
-6.81154e-06
1.11486e-05
-2.32651e-05
1.64556e-05
-3.7223e-05
1.39576e-05
-4.80339e-05
1.08107e-05
-5.63193e-05
8.2854e-06
6.10402e-06
-6.24241e-05
2.12093e-06
-7.56273e-06
2.86873e-06
-4.53999e-06
2.40181e-07
-1.0428e-07
-6.18334e-06
5.88415e-06
-1.73283e-05
1.37421e-05
-3.04392e-05
1.87855e-05
-3.99619e-05
2.06717e-05
-4.36506e-05
2.01449e-05
-4.66409e-05
1.6948e-05
-4.95749e-05
1.37445e-05
-5.21619e-05
1.08725e-05
7.89348e-06
-5.39519e-05
-7.3268e-07
-6.82973e-06
-4.10483e-06
-1.16718e-06
-1.1128e-05
6.91962e-06
-2.07393e-05
1.54963e-05
-2.85056e-05
2.1509e-05
-3.34022e-05
2.36827e-05
-3.61504e-05
2.34203e-05
-3.74723e-05
2.14671e-05
-3.87422e-05
1.82181e-05
-4.00651e-05
1.50673e-05
-4.11519e-05
1.19594e-05
8.81077e-06
-4.20695e-05
-4.3727e-06
-2.45617e-06
-1.03155e-05
4.77613e-06
-1.67338e-05
1.33384e-05
-2.22073e-05
2.09705e-05
-2.56932e-05
2.49953e-05
-2.76778e-05
2.56678e-05
-2.87376e-05
2.44803e-05
-2.92908e-05
2.20204e-05
-2.98556e-05
1.87829e-05
-3.03458e-05
1.55572e-05
-3.07344e-05
1.23478e-05
9.17882e-06
-3.11027e-05
-5.49832e-06
3.04289e-06
-1.0797e-05
1.00752e-05
-1.51555e-05
1.76976e-05
-1.80688e-05
2.38846e-05
-1.95355e-05
2.64624e-05
-2.01317e-05
2.62645e-05
-2.0126e-05
2.44746e-05
-1.99266e-05
2.1821e-05
-1.98716e-05
1.87275e-05
-1.98915e-05
1.55767e-05
-1.99663e-05
1.24223e-05
9.28207e-06
-2.007e-05
-4.87704e-06
7.92042e-06
-8.86185e-06
1.40609e-05
-1.14623e-05
2.02987e-05
-1.25304e-05
2.49536e-05
-1.25838e-05
2.65166e-05
-1.20434e-05
2.57245e-05
-1.12757e-05
2.37073e-05
-1.05609e-05
2.1106e-05
-1.00359e-05
1.82024e-05
-9.67446e-06
1.52149e-05
-9.44603e-06
1.21936e-05
9.14693e-06
-9.31118e-06
-3.82307e-06
1.17448e-05
-6.58612e-06
1.68249e-05
-7.62718e-06
2.1341e-05
-7.1246e-06
2.44525e-05
-5.79185e-06
2.51848e-05
-4.19938e-06
2.41332e-05
-2.68434e-06
2.21926e-05
-1.39087e-06
1.9813e-05
-3.8129e-07
1.71928e-05
3.71997e-07
1.44617e-05
9.11526e-07
1.1654e-05
8.77481e-06
1.28354e-06
-3.04497e-06
1.47921e-05
-4.64508e-06
1.84265e-05
-4.2017e-06
2.08994e-05
-2.16329e-06
2.24155e-05
5.41812e-07
2.24811e-05
3.21485e-06
2.14611e-05
5.57615e-06
1.98321e-05
7.53603e-06
1.78535e-05
9.08449e-06
1.56446e-05
1.02679e-05
1.32783e-05
1.1147e-05
1.07749e-05
8.14221e-06
1.17796e-05
-2.45389e-06
1.72482e-05
-3.06965e-06
1.90442e-05
-9.4589e-07
1.87774e-05
2.67147e-06
1.87997e-05
6.7115e-06
1.84426e-05
1.04847e-05
1.76892e-05
1.37333e-05
1.65846e-05
1.64047e-05
1.51828e-05
1.8526e-05
1.35238e-05
2.01658e-05
1.16389e-05
2.1407e-05
9.53403e-06
7.22701e-06
2.23223e-05
-3.10001e-06
2.03499e-05
-1.20488e-06
1.7151e-05
3.51341e-06
1.40604e-05
8.84336e-06
1.34714e-05
1.40746e-05
1.32128e-05
1.87476e-05
1.30176e-05
2.27072e-05
1.2626e-05
2.59486e-05
1.19422e-05
2.85299e-05
1.09429e-05
3.05374e-05
9.63169e-06
3.20731e-05
7.99837e-06
6.0785e-06
3.32217e-05
3.7157e-08
2.03152e-05
6.55026e-06
1.06391e-05
1.34401e-05
7.17169e-06
1.9774e-05
7.13871e-06
2.53708e-05
7.61722e-06
3.01775e-05
8.21219e-06
3.42025e-05
8.60212e-06
3.74895e-05
8.65617e-06
4.01137e-05
8.31933e-06
4.21603e-05
7.58549e-06
4.37356e-05
6.42339e-06
4.89523e-06
4.49191e-05
1.98775e-05
4.37863e-07
2.8448e-05
2.06896e-06
3.43313e-05
1.28888e-06
3.92447e-05
2.22563e-06
4.33082e-05
3.55433e-06
4.67671e-05
4.7539e-06
4.97141e-05
5.65583e-06
5.21669e-05
6.20365e-06
5.41493e-05
6.33721e-06
5.56938e-05
6.041e-06
5.68797e-05
5.23751e-06
5.77571e-05
4.01775e-06
-6.63946e-05
3.97066e-06
-6.85351e-05
2.13988e-06
-6.88478e-05
3.13386e-07
-6.75481e-05
-1.30048e-06
-6.46133e-05
-2.93448e-06
-5.99534e-05
-4.66079e-06
-5.34709e-05
-6.48211e-06
-4.50269e-05
-8.44367e-06
-3.44833e-05
-1.05437e-05
-2.19979e-05
-1.24844e-05
-9.21406e-06
-1.27827e-05
-9.21367e-06
-5.51239e-05
5.14302e-06
-5.55712e-05
2.58674e-06
-5.54177e-05
1.60466e-07
-5.45254e-05
-2.19309e-06
-5.2803e-05
-4.6565e-06
-5.01261e-05
-7.33775e-06
-4.63116e-05
-1.02961e-05
-4.11438e-05
-1.36108e-05
-3.43894e-05
-1.72972e-05
-2.57918e-05
-2.10818e-05
-1.447e-05
-2.41038e-05
-2.36834e-05
-4.27421e-05
5.81575e-06
-4.31038e-05
2.94817e-06
-4.30617e-05
1.18619e-07
-4.24579e-05
-2.79698e-06
-4.12184e-05
-5.8958e-06
-3.92697e-05
-9.28625e-06
-3.64959e-05
-1.30693e-05
-3.27959e-05
-1.73101e-05
-2.80466e-05
-2.2046e-05
-2.17661e-05
-2.73619e-05
-1.30968e-05
-3.27724e-05
-3.67799e-05
-3.13723e-05
6.08522e-06
-3.14472e-05
3.02285e-06
-3.12445e-05
-8.40983e-08
-3.07051e-05
-3.33639e-06
-2.97753e-05
-6.82557e-06
-2.84103e-05
-1.06511e-05
-2.65333e-05
-1.4946e-05
-2.40593e-05
-1.97836e-05
-2.08212e-05
-2.52837e-05
-1.64122e-05
-3.17706e-05
-9.9858e-06
-3.91982e-05
-4.67654e-05
-2.01381e-05
6.15314e-06
-2.01119e-05
2.99631e-06
-1.99431e-05
-2.52912e-07
-1.9601e-05
-3.67865e-06
-1.90602e-05
-7.36631e-06
-1.82936e-05
-1.14176e-05
-1.72596e-05
-1.59796e-05
-1.58946e-05
-2.11482e-05
-1.40236e-05
-2.71543e-05
-1.14767e-05
-3.43172e-05
-7.39335e-06
-4.32809e-05
-5.41586e-05
-9.2204e-06
6.06208e-06
-9.13194e-06
2.90773e-06
-9.01807e-06
-3.66935e-07
-8.86653e-06
-3.83011e-06
-8.67311e-06
-7.55971e-06
-8.4352e-06
-1.16552e-05
-8.16938e-06
-1.62452e-05
-7.84248e-06
-2.14747e-05
-7.38637e-06
-2.76103e-05
-6.61216e-06
-3.5091e-05
-4.83148e-06
-4.50613e-05
-5.89899e-05
1.53261e-06
5.81297e-06
1.69084e-06
2.74942e-06
1.7735e-06
-4.49438e-07
1.77659e-06
-3.83313e-06
1.68151e-06
-7.46433e-06
1.45729e-06
-1.14308e-05
1.0617e-06
-1.58493e-05
4.66638e-07
-2.08795e-05
-3.27745e-07
-2.68156e-05
-1.2234e-06
-3.41954e-05
-1.8242e-06
-4.44602e-05
-6.0814e-05
1.22149e-05
5.37762e-06
1.24827e-05
2.48172e-06
1.25904e-05
-5.56908e-07
1.25206e-05
-3.76308e-06
1.22325e-05
-7.17596e-06
1.1664e-05
-1.08619e-05
1.07287e-05
-1.49137e-05
9.32442e-06
-1.9475e-05
7.33877e-06
-2.48301e-05
4.71793e-06
-3.15742e-05
1.79562e-06
-4.15377e-05
-5.90181e-05
2.29737e-05
4.72644e-06
2.33937e-05
2.06198e-06
2.3588e-05
-7.50806e-07
2.35313e-05
-3.70605e-06
2.31655e-05
-6.80975e-06
2.24013e-05
-1.00973e-05
2.11053e-05
-1.36174e-05
1.90971e-05
-1.74666e-05
1.61296e-05
-2.18622e-05
1.19305e-05
-2.7375e-05
6.51937e-06
-3.61259e-05
-5.24985e-05
3.40611e-05
3.8871e-06
3.46286e-05
1.49476e-06
3.49332e-05
-1.05503e-06
3.49496e-05
-3.72198e-06
3.46104e-05
-6.47017e-06
3.38092e-05
-9.29576e-06
3.23729e-05
-1.21808e-05
3.00495e-05
-1.51429e-05
2.6432e-05
-1.82445e-05
2.10221e-05
-2.19646e-05
1.29377e-05
-2.80409e-05
-3.95598e-05
4.58039e-05
3.00269e-06
4.6424e-05
8.751e-07
4.67924e-05
-1.42292e-06
4.68871e-05
-3.81615e-06
4.6641e-05
-6.22362e-06
4.59459e-05
-8.60018e-06
4.46095e-05
-1.0844e-05
4.2352e-05
-1.2885e-05
3.8619e-05
-1.4511e-05
3.26733e-05
-1.60183e-05
2.19839e-05
-1.73503e-05
-1.7575e-05
5.84335e-05
2.3265e-06
5.89259e-05
3.82979e-07
5.92483e-05
-1.74488e-06
5.93784e-05
-3.94567e-06
5.92535e-05
-6.09823e-06
5.87763e-05
-8.12258e-06
5.77688e-05
-9.83607e-06
5.59875e-05
-1.11032e-05
5.29097e-05
-1.14327e-05
4.75791e-05
-1.06873e-05
3.62193e-05
-5.98953e-06
1.86452e-05
5.46821e-06
-5.46596e-06
9.28941e-06
-3.82218e-06
1.20402e-05
-2.7498e-06
1.25929e-05
-5.52521e-07
1.0011e-05
2.58279e-06
4.35718e-06
5.65799e-06
-6.7575e-06
1.11162e-05
-2.32022e-05
1.64481e-05
-3.71705e-05
1.39694e-05
-4.79823e-05
1.08131e-05
-5.62725e-05
8.29133e-06
6.10686e-06
-6.23789e-05
2.1235e-06
-7.58813e-06
2.86497e-06
-4.56251e-06
2.40532e-07
-1.24723e-07
-6.16835e-06
5.85748e-06
-1.72959e-05
1.37106e-05
-3.04024e-05
1.87653e-05
-3.99429e-05
2.06573e-05
-4.36368e-05
2.01428e-05
-4.6619e-05
1.69523e-05
-4.95519e-05
1.37463e-05
-5.21367e-05
1.08767e-05
7.89697e-06
-5.39268e-05
-7.38847e-07
-6.84683e-06
-4.1099e-06
-1.19015e-06
-1.11215e-05
6.88797e-06
-2.07246e-05
1.54611e-05
-2.84934e-05
2.14799e-05
-3.33925e-05
2.36649e-05
-3.61439e-05
2.34089e-05
-3.7464e-05
2.14632e-05
-3.87295e-05
1.82178e-05
-4.00505e-05
1.50672e-05
-4.11353e-05
1.19614e-05
8.81343e-06
-4.2052e-05
-4.3743e-06
-2.46988e-06
-1.0313e-05
4.74975e-06
-1.67285e-05
1.33047e-05
-2.22022e-05
2.09355e-05
-2.56906e-05
2.49691e-05
-2.76759e-05
2.56507e-05
-2.87351e-05
2.44684e-05
-2.92861e-05
2.20143e-05
-2.98484e-05
1.87798e-05
-3.03371e-05
1.55557e-05
-3.07242e-05
1.23481e-05
9.18009e-06
-3.10912e-05
-5.49574e-06
3.028e-06
-1.07949e-05
1.00504e-05
-1.51543e-05
1.76646e-05
-1.807e-05
2.38526e-05
-1.95381e-05
2.64381e-05
-2.01342e-05
2.62474e-05
-2.01279e-05
2.44628e-05
-1.99267e-05
2.1813e-05
-1.98694e-05
1.87226e-05
-1.98878e-05
1.55736e-05
-1.9961e-05
1.24211e-05
9.28216e-06
-2.00635e-05
-4.87621e-06
7.90652e-06
-8.86282e-06
1.4037e-05
-1.14651e-05
2.02689e-05
-1.25363e-05
2.49249e-05
-1.25909e-05
2.64943e-05
-1.20501e-05
2.57083e-05
-1.12817e-05
2.3695e-05
-1.0565e-05
2.10972e-05
-1.00385e-05
1.8196e-05
-9.67535e-06
1.52108e-05
-9.44564e-06
1.21912e-05
9.14615e-06
-9.30964e-06
-3.82445e-06
1.17333e-05
-6.58955e-06
1.68049e-05
-7.63478e-06
2.13156e-05
-7.13538e-06
2.44278e-05
-5.80354e-06
2.51649e-05
-4.2108e-06
2.41173e-05
-2.69433e-06
2.21803e-05
-1.39944e-06
1.98033e-05
-3.88132e-07
1.71856e-05
3.66542e-07
1.44565e-05
9.07416e-07
1.16507e-05
8.77324e-06
1.28053e-06
-3.04793e-06
1.4785e-05
-4.65177e-06
1.84108e-05
-4.21307e-06
2.08799e-05
-2.17794e-06
2.23953e-05
5.25991e-07
2.24632e-05
3.19955e-06
2.14459e-05
5.56204e-06
1.98194e-05
7.52352e-06
1.78431e-05
9.07352e-06
1.56364e-05
1.02584e-05
1.32722e-05
1.11388e-05
1.07706e-05
8.13976e-06
1.17726e-05
-2.45772e-06
1.72459e-05
-3.07686e-06
1.90336e-05
-9.58687e-07
1.8763e-05
2.65516e-06
1.87839e-05
6.6936e-06
1.8427e-05
1.04668e-05
1.76748e-05
1.37163e-05
1.65717e-05
1.63892e-05
1.51717e-05
1.8512e-05
1.35146e-05
2.01534e-05
1.16316e-05
2.13959e-05
9.5286e-06
7.22348e-06
2.23126e-05
-3.10143e-06
2.03515e-05
-1.21101e-06
1.71441e-05
3.50348e-06
1.40522e-05
8.82907e-06
1.34598e-05
1.40582e-05
1.31999e-05
1.87303e-05
1.30043e-05
2.26903e-05
1.26133e-05
2.59326e-05
1.19307e-05
2.85152e-05
1.09329e-05
3.05239e-05
9.62339e-06
3.2061e-05
7.9919e-06
6.07384e-06
3.32108e-05
3.97207e-08
2.03143e-05
6.54984e-06
1.06374e-05
1.34348e-05
7.16628e-06
1.97654e-05
7.13089e-06
2.53599e-05
7.60698e-06
3.01651e-05
8.20063e-06
3.41895e-05
8.59043e-06
3.74765e-05
8.64498e-06
4.01011e-05
8.30927e-06
4.21485e-05
7.57668e-06
4.37247e-05
6.41625e-06
4.88968e-06
4.49093e-05
1.9883e-05
4.32997e-07
2.84522e-05
2.06747e-06
3.43334e-05
1.28745e-06
3.9244e-05
2.22058e-06
4.33048e-05
3.54661e-06
4.67615e-05
4.74462e-06
4.97067e-05
5.6458e-06
5.21587e-05
6.19365e-06
5.41407e-05
6.32768e-06
5.56853e-05
6.03233e-06
5.68716e-05
5.22997e-06
5.77498e-05
4.01165e-06
-6.63527e-05
3.97486e-06
-6.84956e-05
2.143e-06
-6.88117e-05
3.17212e-07
-6.75148e-05
-1.29736e-06
-6.45832e-05
-2.931e-06
-5.99265e-05
-4.6575e-06
-5.34477e-05
-6.47844e-06
-4.50074e-05
-8.44006e-06
-3.44678e-05
-1.05396e-05
-2.19867e-05
-1.24803e-05
-9.20865e-06
-1.27768e-05
-9.20833e-06
-5.50986e-05
5.14724e-06
-5.55465e-05
2.59073e-06
-5.53934e-05
1.64705e-07
-5.45021e-05
-2.18887e-06
-5.2781e-05
-4.65181e-06
-5.0106e-05
-7.33262e-06
-4.62936e-05
-1.02905e-05
-4.11284e-05
-1.36048e-05
-3.43768e-05
-1.72906e-05
-2.57826e-05
-2.10744e-05
-1.44636e-05
-2.40954e-05
-2.36717e-05
-4.27239e-05
5.8191e-06
-4.30854e-05
2.95197e-06
-4.30437e-05
1.22969e-07
-4.24407e-05
-2.79206e-06
-4.12024e-05
-5.89018e-06
-3.92551e-05
-9.27985e-06
-3.64833e-05
-1.30621e-05
-3.27854e-05
-1.73022e-05
-2.80386e-05
-2.20371e-05
-2.17609e-05
-2.7352e-05
-1.30946e-05
-3.27613e-05
-3.67661e-05
-3.136e-05
6.08755e-06
-3.14345e-05
3.0261e-06
-3.12318e-05
-7.99227e-08
-3.06929e-05
-3.33127e-06
-2.97638e-05
-6.81943e-06
-2.83998e-05
-1.06439e-05
-2.65241e-05
-1.49377e-05
-2.40516e-05
-1.97744e-05
-2.08153e-05
-2.52734e-05
-1.64079e-05
-3.17592e-05
-9.98321e-06
-3.91857e-05
-4.67493e-05
-2.01309e-05
6.15459e-06
-2.01041e-05
2.999e-06
-1.99353e-05
-2.49038e-07
-1.95932e-05
-3.67351e-06
-1.90529e-05
-7.35994e-06
-1.82868e-05
-1.14099e-05
-1.72537e-05
-1.59706e-05
-1.58898e-05
-2.11381e-05
-1.40199e-05
-2.7143e-05
-1.14742e-05
-3.43047e-05
-7.39279e-06
-4.3267e-05
-5.41419e-05
-9.21803e-06
6.0628e-06
-9.12897e-06
2.90988e-06
-9.01469e-06
-3.6333e-07
-8.86304e-06
-3.82512e-06
-8.66963e-06
-7.55324e-06
-8.43198e-06
-1.16473e-05
-8.16653e-06
-1.62359e-05
-7.84013e-06
-2.14641e-05
-7.38458e-06
-2.75984e-05
-6.61116e-06
-3.5078e-05
-4.83103e-06
-4.50468e-05
-5.89731e-05
1.53053e-06
5.81305e-06
1.68957e-06
2.7511e-06
1.77275e-06
-4.46245e-07
1.77632e-06
-3.82835e-06
1.68143e-06
-7.45805e-06
1.45734e-06
-1.14229e-05
1.06173e-06
-1.58399e-05
4.66556e-07
-2.08687e-05
-3.28086e-07
-2.68036e-05
-1.22387e-06
-3.4182e-05
-1.82506e-06
-4.44459e-05
-6.07979e-05
1.22091e-05
5.37689e-06
1.24778e-05
2.48268e-06
1.25863e-05
-5.54294e-07
1.25172e-05
-3.75885e-06
1.22296e-05
-7.17009e-06
1.16614e-05
-1.08544e-05
1.07264e-05
-1.49046e-05
9.32228e-06
-1.94643e-05
7.33693e-06
-2.4818e-05
4.71603e-06
-3.15612e-05
1.79437e-06
-4.15237e-05
-5.90035e-05
2.29652e-05
4.72468e-06
2.33863e-05
2.06202e-06
2.35815e-05
-7.49024e-07
2.35256e-05
-3.70256e-06
2.31605e-05
-6.80452e-06
2.23968e-05
-1.00904e-05
2.11012e-05
-1.36087e-05
1.90934e-05
-1.74563e-05
1.61262e-05
-2.18505e-05
1.19277e-05
-2.73621e-05
6.51712e-06
-3.61129e-05
-5.24861e-05
3.40515e-05
3.88428e-06
3.46202e-05
1.49379e-06
3.49257e-05
-1.05418e-06
3.49429e-05
-3.71931e-06
3.46044e-05
-6.46568e-06
3.38037e-05
-9.28937e-06
3.23678e-05
-1.21726e-05
3.00448e-05
-1.51329e-05
2.64277e-05
-1.8233e-05
2.10183e-05
-2.19522e-05
1.29349e-05
-2.80291e-05
-3.95501e-05
4.57951e-05
2.99894e-06
4.64161e-05
8.73219e-07
4.67853e-05
-1.42292e-06
4.68806e-05
-3.8142e-06
4.66351e-05
-6.21976e-06
4.59403e-05
-8.59422e-06
4.46042e-05
-1.08361e-05
4.2347e-05
-1.28752e-05
3.86142e-05
-1.44997e-05
3.26689e-05
-1.60064e-05
2.19807e-05
-1.73394e-05
-1.75693e-05
5.84269e-05
2.32196e-06
5.892e-05
3.8037e-07
5.92429e-05
-1.74546e-06
5.93732e-05
-3.94421e-06
5.92484e-05
-6.0946e-06
5.87712e-05
-8.11673e-06
5.77637e-05
-9.82807e-06
5.59823e-05
-1.10933e-05
5.29045e-05
-1.14213e-05
4.75742e-05
-1.06752e-05
3.62149e-05
-5.98045e-06
1.86472e-05
5.46384e-06
-5.46031e-06
9.28289e-06
-3.8196e-06
1.20299e-05
-2.74428e-06
1.25672e-05
-5.36645e-07
9.95943e-06
2.61137e-06
4.27816e-06
5.68566e-06
-6.91352e-06
1.11945e-05
-2.33657e-05
1.64553e-05
-3.72928e-05
1.39286e-05
-4.80899e-05
1.0798e-05
-5.63599e-05
8.27091e-06
6.09561e-06
-6.24553e-05
2.12538e-06
-7.58355e-06
2.84852e-06
-4.54168e-06
1.99337e-07
-9.35968e-08
-6.25349e-06
5.91766e-06
-1.74226e-05
1.37814e-05
-3.05259e-05
1.87899e-05
-3.9999e-05
2.06684e-05
-4.36677e-05
2.01247e-05
-4.66616e-05
1.69232e-05
-4.9591e-05
1.37277e-05
-5.21759e-05
1.08563e-05
7.88138e-06
-5.39617e-05
-7.57183e-07
-6.82552e-06
-4.15763e-06
-1.14084e-06
-1.12087e-05
6.95802e-06
-2.08169e-05
1.55262e-05
-2.85475e-05
2.15124e-05
-3.34247e-05
2.36676e-05
-3.61579e-05
2.34021e-05
-3.7477e-05
2.14443e-05
-3.87493e-05
1.81957e-05
-4.0071e-05
1.50496e-05
-4.11577e-05
1.19432e-05
8.7976e-06
-4.2074e-05
-4.39897e-06
-2.42618e-06
-1.03588e-05
4.8189e-06
-1.67723e-05
1.33717e-05
-2.22281e-05
2.09825e-05
-2.57002e-05
2.4985e-05
-2.768e-05
2.5648e-05
-2.87366e-05
2.44593e-05
-2.92895e-05
2.19977e-05
-2.98557e-05
1.87621e-05
-3.03457e-05
1.55398e-05
-3.07349e-05
1.23327e-05
9.16632e-06
-3.11036e-05
-5.51497e-06
3.0885e-06
-1.0813e-05
1.01169e-05
-1.5164e-05
1.77234e-05
-1.8068e-05
2.38875e-05
-1.95306e-05
2.64486e-05
-2.0126e-05
2.62446e-05
-2.01195e-05
2.44537e-05
-1.99217e-05
2.18009e-05
-1.98684e-05
1.87094e-05
-1.98892e-05
1.55611e-05
-1.9965e-05
1.24088e-05
9.27053e-06
-2.00691e-05
-4.87873e-06
7.96741e-06
-8.86133e-06
1.41e-05
-1.14563e-05
2.03195e-05
-1.25206e-05
2.49532e-05
-1.25736e-05
2.65035e-05
-1.20342e-05
2.57069e-05
-1.12681e-05
2.36896e-05
-1.05551e-05
2.10893e-05
-1.00315e-05
1.81872e-05
-9.67094e-06
1.52016e-05
-9.44324e-06
1.21818e-05
9.13656e-06
-9.3088e-06
-3.81771e-06
1.17863e-05
-6.5757e-06
1.68588e-05
-7.61267e-06
2.13583e-05
-7.10981e-06
2.44525e-05
-5.77914e-06
2.51752e-05
-4.18971e-06
2.412e-05
-2.67685e-06
2.21791e-05
-1.38509e-06
1.97998e-05
-3.7658e-07
1.71806e-05
3.76014e-07
1.44506e-05
9.15071e-07
1.16439e-05
8.76564e-06
1.28681e-06
-3.03468e-06
1.48222e-05
-4.62769e-06
1.8454e-05
-4.1818e-06
2.09141e-05
-2.14531e-06
2.24186e-05
5.55392e-07
2.24766e-05
3.22482e-06
2.14533e-05
5.58341e-06
1.98228e-05
7.54181e-06
1.78439e-05
9.08931e-06
1.56351e-05
1.02722e-05
1.32692e-05
1.11511e-05
1.07662e-05
8.13405e-06
1.17834e-05
-2.43882e-06
1.72631e-05
-3.04812e-06
1.90651e-05
-9.23063e-07
1.8791e-05
2.6909e-06
1.88066e-05
6.72624e-06
1.84435e-05
1.04954e-05
1.76864e-05
1.37412e-05
1.65794e-05
1.6411e-05
1.51764e-05
1.85313e-05
1.35167e-05
2.01707e-05
1.16315e-05
2.14115e-05
9.52661e-06
7.21978e-06
2.23267e-05
-3.08382e-06
2.03495e-05
-1.18317e-06
1.71659e-05
3.53552e-06
1.4074e-05
8.86232e-06
1.34809e-05
1.40897e-05
1.32179e-05
1.87588e-05
1.30188e-05
2.27157e-05
1.26244e-05
2.59552e-05
1.19385e-05
2.85354e-05
1.09379e-05
3.05423e-05
9.62587e-06
3.20775e-05
7.99211e-06
6.07213e-06
3.32259e-05
4.28624e-08
2.03086e-05
6.56413e-06
1.06459e-05
1.34555e-05
7.18352e-06
1.97883e-05
7.14919e-06
2.53826e-05
7.6245e-06
3.01867e-05
8.21594e-06
3.42095e-05
8.60292e-06
3.74948e-05
8.65444e-06
4.0118e-05
8.31597e-06
4.21639e-05
7.58081e-06
4.37388e-05
6.41803e-06
4.88956e-06
4.49221e-05
1.98766e-05
4.32588e-07
2.84495e-05
2.07348e-06
3.43347e-05
1.29827e-06
3.92493e-05
2.23484e-06
4.33124e-05
3.56124e-06
4.67705e-05
4.75818e-06
4.97161e-05
5.6574e-06
5.21681e-05
6.20283e-06
5.41498e-05
6.33447e-06
5.5694e-05
6.03673e-06
5.68797e-05
5.23242e-06
5.77572e-05
4.01222e-06
-6.64171e-05
3.96243e-06
-6.85515e-05
2.13434e-06
-6.88592e-05
3.08428e-07
-6.75557e-05
-1.30387e-06
-6.46182e-05
-2.93721e-06
-5.99563e-05
-4.66271e-06
-5.34725e-05
-6.48351e-06
-4.50277e-05
-8.44441e-06
-3.44839e-05
-1.05439e-05
-2.1999e-05
-1.24841e-05
-9.21517e-06
-1.27827e-05
-9.21482e-06
-5.51316e-05
5.13281e-06
-5.55763e-05
2.579e-06
-5.54216e-05
1.54296e-07
-5.45278e-05
-2.19773e-06
-5.28045e-05
-4.66015e-06
-5.01268e-05
-7.34045e-06
-4.63119e-05
-1.02979e-05
-4.11438e-05
-1.36119e-05
-3.43895e-05
-1.72974e-05
-2.57919e-05
-2.10815e-05
-1.44702e-05
-2.41038e-05
-2.36848e-05
-4.27459e-05
5.80493e-06
-4.31065e-05
2.93954e-06
-4.30637e-05
1.1171e-07
-4.2459e-05
-2.8024e-06
-4.1219e-05
-5.89999e-06
-3.92699e-05
-9.28934e-06
-3.64959e-05
-1.30714e-05
-3.27957e-05
-1.73114e-05
-2.80462e-05
-2.20465e-05
-2.17654e-05
-2.73619e-05
-1.30963e-05
-3.27724e-05
-3.67808e-05
-3.13734e-05
6.0747e-06
-3.1448e-05
3.01418e-06
-3.12451e-05
-9.11618e-08
-3.07054e-05
-3.34211e-06
-2.97752e-05
-6.83009e-06
-2.84099e-05
-1.06545e-05
-2.65327e-05
-1.49483e-05
-2.40586e-05
-1.97851e-05
-2.08205e-05
-2.52843e-05
-1.64115e-05
-3.17704e-05
-9.98551e-06
-3.91979e-05
-4.6766e-05
-2.01375e-05
6.14319e-06
-2.01112e-05
2.98792e-06
-1.99424e-05
-2.59922e-07
-1.96001e-05
-3.68444e-06
-1.90591e-05
-7.37099e-06
-1.82923e-05
-1.14211e-05
-1.72582e-05
-1.5982e-05
-1.58932e-05
-2.11497e-05
-1.40224e-05
-2.71548e-05
-1.14756e-05
-3.4317e-05
-7.39257e-06
-4.32803e-05
-5.41584e-05
-9.21826e-06
6.05293e-06
-9.12992e-06
2.89978e-06
-9.01603e-06
-3.73675e-07
-8.86448e-06
-3.83578e-06
-8.67102e-06
-7.56428e-06
-8.43315e-06
-1.16587e-05
-8.16735e-06
-1.62475e-05
-7.84069e-06
-2.14759e-05
-7.38489e-06
-2.76105e-05
-6.61106e-06
-3.50904e-05
-4.83089e-06
-4.50602e-05
-5.89891e-05
1.53565e-06
5.80464e-06
1.69381e-06
2.74204e-06
1.77639e-06
-4.55837e-07
1.77945e-06
-3.8385e-06
1.68424e-06
-7.46866e-06
1.45988e-06
-1.1434e-05
1.06404e-06
-1.58513e-05
4.6862e-07
-2.08803e-05
-3.26236e-07
-2.68153e-05
-1.22239e-06
-3.41943e-05
-1.82354e-06
-4.44588e-05
-6.08125e-05
1.22187e-05
5.37005e-06
1.24863e-05
2.47489e-06
1.25938e-05
-5.62854e-07
1.25239e-05
-3.76805e-06
1.22355e-05
-7.17986e-06
1.16667e-05
-1.08647e-05
1.0731e-05
-1.49153e-05
9.32622e-06
-1.94752e-05
7.34003e-06
-2.48292e-05
4.71865e-06
-3.15725e-05
1.79593e-06
-4.15357e-05
-5.90163e-05
2.29779e-05
4.71961e-06
2.33976e-05
2.05579e-06
2.35915e-05
-7.56169e-07
2.35345e-05
-3.71044e-06
2.31683e-05
-6.81307e-06
2.24036e-05
-1.00995e-05
2.1107e-05
-1.36184e-05
1.90983e-05
-1.74663e-05
1.61303e-05
-2.18607e-05
1.19308e-05
-2.73728e-05
6.51935e-06
-3.61236e-05
-5.24966e-05
3.40651e-05
3.88102e-06
3.46322e-05
1.48929e-06
3.49363e-05
-1.05968e-06
3.49521e-05
-3.72564e-06
3.46124e-05
-6.47274e-06
3.38105e-05
-9.29719e-06
3.23736e-05
-1.21811e-05
3.00497e-05
-1.5142e-05
2.64318e-05
-1.82426e-05
2.10218e-05
-2.19622e-05
1.29372e-05
-2.80384e-05
-3.95584e-05
4.58066e-05
2.99725e-06
4.64263e-05
8.70335e-07
4.67942e-05
-1.42681e-06
4.68882e-05
-3.81901e-06
4.66415e-05
-6.22537e-06
4.59456e-05
-8.60081e-06
4.46086e-05
-1.08436e-05
4.23507e-05
-1.28836e-05
3.86175e-05
-1.45089e-05
3.2672e-05
-1.6016e-05
2.19829e-05
-1.73481e-05
-1.75745e-05
5.84336e-05
2.32127e-06
5.89258e-05
3.78648e-07
5.92478e-05
-1.7482e-06
5.93773e-05
-3.94787e-06
5.92518e-05
-6.09928e-06
5.8774e-05
-8.12251e-06
5.7766e-05
-9.83506e-06
5.59842e-05
-1.11013e-05
5.29065e-05
-1.14306e-05
4.75764e-05
-1.06856e-05
3.62176e-05
-5.98821e-06
1.8644e-05
5.46972e-06
-5.46744e-06
9.29194e-06
-3.82316e-06
1.2043e-05
-2.75013e-06
1.25956e-05
-5.52314e-07
1.00122e-05
2.58425e-06
4.35442e-06
5.66208e-06
-6.76895e-06
1.11249e-05
-2.32209e-05
1.64552e-05
-3.71918e-05
1.39721e-05
-4.80063e-05
1.08158e-05
-5.62977e-05
8.29247e-06
6.10763e-06
-6.24048e-05
2.12532e-06
-7.5914e-06
2.86777e-06
-4.56444e-06
2.42348e-07
-1.24034e-07
-6.17038e-06
5.86155e-06
-1.73046e-05
1.37189e-05
-3.04175e-05
1.87757e-05
-3.99591e-05
2.06671e-05
-4.36533e-05
2.01502e-05
-4.66376e-05
1.69571e-05
-4.95714e-05
1.37499e-05
-5.21572e-05
1.08788e-05
7.89783e-06
-5.39474e-05
-7.37364e-07
-6.85158e-06
-4.10823e-06
-1.19226e-06
-1.11222e-05
6.89101e-06
-2.07304e-05
1.54703e-05
-2.85042e-05
2.14931e-05
-3.34053e-05
2.36774e-05
-3.61576e-05
2.34196e-05
-3.74783e-05
2.14712e-05
-3.87448e-05
1.82236e-05
-4.00663e-05
1.50714e-05
-4.11514e-05
1.19638e-05
8.81431e-06
-4.20682e-05
-4.3742e-06
-2.47472e-06
-1.03144e-05
4.74918e-06
-1.67332e-05
1.3311e-05
-2.22106e-05
2.09485e-05
-2.57007e-05
2.49839e-05
-2.76868e-05
2.56641e-05
-2.87467e-05
2.44796e-05
-2.92982e-05
2.20229e-05
-2.98608e-05
1.87859e-05
-3.03495e-05
1.55598e-05
-3.07365e-05
1.23504e-05
9.18083e-06
-3.11034e-05
-5.49649e-06
3.02393e-06
-1.07978e-05
1.0052e-05
-1.51595e-05
1.76732e-05
-1.8077e-05
2.38674e-05
-1.95459e-05
2.64537e-05
-2.01424e-05
2.62612e-05
-2.01361e-05
2.4474e-05
-1.99348e-05
2.18215e-05
-1.98776e-05
1.87287e-05
-1.98959e-05
1.55776e-05
-1.99691e-05
1.24233e-05
9.28279e-06
-2.00715e-05
-4.87728e-06
7.90359e-06
-8.86522e-06
1.40399e-05
-1.14689e-05
2.02789e-05
-1.25406e-05
2.49403e-05
-1.25955e-05
2.65101e-05
-1.20545e-05
2.57219e-05
-1.12858e-05
2.37059e-05
-1.0569e-05
2.11056e-05
-1.00424e-05
1.82021e-05
-9.67926e-06
1.52148e-05
-9.4496e-06
1.21934e-05
9.1468e-06
-9.31362e-06
-3.82518e-06
1.17311e-05
-6.59093e-06
1.68085e-05
-7.63643e-06
2.13259e-05
-7.13654e-06
2.44427e-05
-5.80415e-06
2.51802e-05
-4.21093e-06
2.41305e-05
-2.69415e-06
2.21909e-05
-1.39914e-06
1.98116e-05
-3.87846e-07
1.71917e-05
3.66727e-07
1.44606e-05
9.07442e-07
1.16531e-05
8.77406e-06
1.28037e-06
-3.04843e-06
1.47834e-05
-4.65252e-06
1.84147e-05
-4.21319e-06
2.08896e-05
-2.17651e-06
2.24086e-05
5.28905e-07
2.2477e-05
3.20331e-06
2.14582e-05
5.5662e-06
1.98296e-05
7.52777e-06
1.78513e-05
9.07768e-06
1.56426e-05
1.02624e-05
1.32765e-05
1.11425e-05
1.07733e-05
8.1409e-06
1.17759e-05
-2.45877e-06
1.72453e-05
-3.07776e-06
1.90373e-05
-9.58097e-07
1.87711e-05
2.6581e-06
1.87949e-05
6.69865e-06
1.84387e-05
1.04732e-05
1.76857e-05
1.37234e-05
1.65812e-05
1.63964e-05
1.51797e-05
1.85192e-05
1.35208e-05
2.01603e-05
1.16362e-05
2.14024e-05
9.53164e-06
7.22505e-06
2.23186e-05
-3.10356e-06
2.0353e-05
-1.21259e-06
1.71472e-05
3.50416e-06
1.40581e-05
8.83248e-06
1.3468e-05
1.40639e-05
1.32092e-05
1.87378e-05
1.30136e-05
2.26987e-05
1.26219e-05
2.59414e-05
1.19381e-05
2.85241e-05
1.09391e-05
3.05326e-05
9.62811e-06
3.20693e-05
7.99524e-06
6.07582e-06
3.32188e-05
3.90134e-08
2.03165e-05
6.54969e-06
1.064e-05
1.34364e-05
7.17044e-06
1.97691e-05
7.13695e-06
2.53655e-05
7.6143e-06
3.01724e-05
8.20824e-06
3.41979e-05
8.5978e-06
3.74855e-05
8.65178e-06
4.01105e-05
8.3151e-06
4.21578e-05
7.58136e-06
4.37338e-05
6.41975e-06
4.89198e-06
4.4918e-05
1.98835e-05
4.347e-07
2.84534e-05
2.0693e-06
3.43355e-05
1.29077e-06
3.92474e-05
2.22536e-06
4.33097e-05
3.55237e-06
4.67678e-05
4.75078e-06
4.97143e-05
5.65194e-06
5.21671e-05
6.19957e-06
5.41495e-05
6.33298e-06
5.56943e-05
6.03681e-06
5.68805e-05
5.23355e-06
5.77584e-05
4.01425e-06
-6.63785e-05
3.97471e-06
-6.85209e-05
2.14252e-06
-6.8836e-05
3.16124e-07
-6.75377e-05
-1.29861e-06
-6.46046e-05
-2.93264e-06
-5.99459e-05
-4.65947e-06
-5.34648e-05
-6.48076e-06
-4.50218e-05
-8.44273e-06
-3.44791e-05
-1.05427e-05
-2.19945e-05
-1.24839e-05
-9.21189e-06
-1.27814e-05
-9.21157e-06
-5.51191e-05
5.14703e-06
-5.55665e-05
2.58977e-06
-5.54128e-05
1.63044e-07
-5.45206e-05
-2.19108e-06
-5.27983e-05
-4.6547e-06
-5.01217e-05
-7.33618e-06
-4.63075e-05
-1.02947e-05
-4.11401e-05
-1.36096e-05
-3.43862e-05
-1.7296e-05
-2.57895e-05
-2.10805e-05
-1.44683e-05
-2.41021e-05
-2.36797e-05
-4.274e-05
5.81877e-06
-4.31011e-05
2.95063e-06
-4.30587e-05
1.20685e-07
-4.24548e-05
-2.79527e-06
-4.12153e-05
-5.89429e-06
-3.92666e-05
-9.28486e-06
-3.6493e-05
-1.3068e-05
-3.27934e-05
-1.73088e-05
-2.80447e-05
-2.20445e-05
-2.17649e-05
-2.736e-05
-1.30966e-05
-3.27701e-05
-3.67761e-05
-3.13719e-05
6.08695e-06
-3.1446e-05
3.02432e-06
-3.12427e-05
-8.28252e-08
-3.0703e-05
-3.33526e-06
-2.9773e-05
-6.82447e-06
-2.8408e-05
-1.06499e-05
-2.65311e-05
-1.49447e-05
-2.40575e-05
-1.97822e-05
-2.08198e-05
-2.52821e-05
-1.6411e-05
-3.17686e-05
-9.98511e-06
-3.91957e-05
-4.67611e-05
-2.01387e-05
6.15382e-06
-2.01117e-05
2.99693e-06
-1.99425e-05
-2.52337e-07
-1.95999e-05
-3.67799e-06
-1.9059e-05
-7.36555e-06
-1.82923e-05
-1.14166e-05
-1.72584e-05
-1.59784e-05
-1.58937e-05
-2.11468e-05
-1.40228e-05
-2.71526e-05
-1.14762e-05
-3.43151e-05
-7.39344e-06
-4.32782e-05
-5.41544e-05
-9.222e-06
6.062e-06
-9.13286e-06
2.90772e-06
-9.01843e-06
-3.66783e-07
-8.86659e-06
-3.82982e-06
-8.6729e-06
-7.55912e-06
-8.43493e-06
-1.16544e-05
-8.16912e-06
-1.6244e-05
-7.84224e-06
-2.14732e-05
-7.38618e-06
-2.76085e-05
-6.61213e-06
-3.50889e-05
-4.83146e-06
-4.50584e-05
-5.89858e-05
1.53021e-06
5.8124e-06
1.68913e-06
2.74906e-06
1.77223e-06
-4.49614e-07
1.77575e-06
-3.833e-06
1.68085e-06
-7.46391e-06
1.45678e-06
-1.14299e-05
1.06123e-06
-1.58481e-05
4.66197e-07
-2.08779e-05
-3.28208e-07
-2.68138e-05
-1.22374e-06
-3.4193e-05
-1.82475e-06
-4.44575e-05
-6.08103e-05
1.2212e-05
5.37657e-06
1.24805e-05
2.48095e-06
1.25886e-05
-5.57381e-07
1.25193e-05
-3.76324e-06
1.22314e-05
-7.1757e-06
1.1663e-05
-1.08612e-05
1.07278e-05
-1.49125e-05
9.32356e-06
-1.94733e-05
7.33808e-06
-2.4828e-05
4.71711e-06
-3.1572e-05
1.7952e-06
-4.15349e-05
-5.90149e-05
2.29708e-05
4.72481e-06
2.33915e-05
2.06072e-06
2.35862e-05
-7.51691e-07
2.353e-05
-3.70654e-06
2.31644e-05
-6.80973e-06
2.24003e-05
-1.00967e-05
2.11044e-05
-1.36162e-05
1.90962e-05
-1.74649e-05
1.61286e-05
-2.18601e-05
1.19297e-05
-2.73724e-05
6.51857e-06
-3.61233e-05
-5.24959e-05
3.4059e-05
3.88488e-06
3.46271e-05
1.493e-06
3.49321e-05
-1.05636e-06
3.49488e-05
-3.72281e-06
3.46098e-05
-6.47043e-06
3.38087e-05
-9.29529e-06
3.23724e-05
-1.21796e-05
3.00489e-05
-1.5141e-05
2.64312e-05
-1.82421e-05
2.10212e-05
-2.19619e-05
1.29369e-05
-2.80385e-05
-3.95578e-05
4.58034e-05
3e-06
4.64239e-05
8.72927e-07
4.67926e-05
-1.42458e-06
4.68874e-05
-3.81721e-06
4.66413e-05
-6.22404e-06
4.59461e-05
-8.5997e-06
4.46096e-05
-1.08427e-05
4.23519e-05
-1.28828e-05
3.86187e-05
-1.45083e-05
3.26726e-05
-1.60153e-05
2.19833e-05
-1.73475e-05
-1.7574e-05
5.8435e-05
2.32349e-06
5.89276e-05
3.80572e-07
5.925e-05
-1.74664e-06
5.93798e-05
-3.94677e-06
5.92546e-05
-6.09851e-06
5.87772e-05
-8.12194e-06
5.77694e-05
-9.83446e-06
5.59879e-05
-1.11008e-05
5.29099e-05
-1.14297e-05
4.7579e-05
-1.06835e-05
3.62186e-05
-5.98708e-06
1.8646e-05
6.84867e-05
4.84551e-06
-7.28931e-05
6.77227e-05
2.83307e-06
6.64779e-05
2.53361e-06
6.61713e-05
2.53217e-06
6.66192e-05
3.10654e-06
6.74833e-05
3.89003e-06
6.84933e-05
4.64605e-06
6.94562e-05
5.24086e-06
7.02563e-05
5.5372e-06
7.08377e-05
5.4595e-06
7.12408e-05
4.83444e-06
3.77506e-06
7.14837e-05
8.8656e-05
3.90516e-06
-8.77167e-05
8.84543e-05
3.0343e-06
8.80202e-05
2.96715e-06
8.75476e-05
3.00425e-06
8.72489e-05
3.4048e-06
8.70949e-05
4.04378e-06
8.69881e-05
4.75265e-06
8.683e-05
5.39873e-06
8.65492e-05
5.81779e-06
8.6126e-05
5.88258e-06
8.56415e-05
5.31868e-06
4.27084e-06
8.51456e-05
0.000102853
2.7225e-06
-0.00010167
0.000103424
2.46358e-06
0.000103723
2.66706e-06
0.000103753
2.97404e-06
0.000103586
3.57139e-06
0.000103231
4.39799e-06
0.000102667
5.31646e-06
0.000101875
6.19046e-06
0.000100854
6.83828e-06
9.96825e-05
7.05358e-06
9.85268e-05
6.47435e-06
5.2355e-06
9.75628e-05
0.000115799
-0.000114952
1.87378e-06
0.000116367
1.89523e-06
0.000116665
2.36831e-06
0.00011664
2.99783e-06
0.000116277
3.93338e-06
0.00011557
5.10467e-06
0.000114528
6.35747e-06
0.000113203
7.51554e-06
0.000111674
8.36618e-06
0.000110144
8.58343e-06
0.000108884
7.73531e-06
0.000108355
5.76314e-06
7.17132e-05
2.09729e-06
7.19191e-05