/*--------------------------------*- C++ -*----------------------------------*\
| =========                 |                                                 |
| \\      /  F ield         | OpenFOAM: The Open Source CFD Toolbox           |
|  \\    /   O peration     | Version:  4.0                                   |
|   \\  /    A nd           | Web:      www.OpenFOAM.org                      |
|    \\/     M anipulation  |                                                 |
\*---------------------------------------------------------------------------*/
FoamFile
{
    version     2.0;
    format      ascii;
    class       volVectorField;
    location    "250";
    object      U;
}
// * * * * * * * * * * * * * * * * * * * * * * * * * * * * * * * * * * * * * //

dimensions      [0 1 -1 0 0 0 0];

internalField   nonuniform List<vector> 
3072
(
(0.192447 2.22347 0)
(0.211438 1.92986 0)
(0.308293 1.7664 1.43801e-19)
(0.40964 1.65191 9.4008e-19)
(0.521876 1.64412 -2.1532e-18)
(0.751686 1.82251 9.32979e-19)
(1.45852 1.71759 2.69726e-19)
(2.5377 1.74896 1.45398e-19)
(2.96463 2.33798 -3.9032e-19)
(3.19354 2.54367 9.23e-19)
(3.52474 2.76295 3.92595e-19)
(3.80434 2.7437 5.20549e-19)
(-0.448049 2.76478 -2.53852e-19)
(-0.235717 2.37389 -4.67352e-19)
(0.0587339 2.43639 5.34211e-19)
(0.54493 2.51534 0)
(1.35806 2.57954 6.39738e-19)
(2.17045 2.93228 -7.83591e-19)
(2.71937 3.08844 0)
(2.96329 3.13258 0)
(3.03741 3.18476 0)
(3.10504 3.20136 7.44454e-19)
(3.23586 3.20575 -2.1251e-18)
(3.34395 3.19159 4.89228e-19)
(-0.339682 3.05984 1.64681e-19)
(0.123921 2.79012 0)
(0.781107 2.92208 0)
(1.54372 3.11637 -2.45365e-18)
(2.20651 3.24387 8.83017e-19)
(2.66249 3.29769 -1.89674e-18)
(2.92915 3.23372 2.0136e-18)
(3.09201 3.13568 0)
(3.15783 3.06856 0)
(3.23717 3.00004 -9.81292e-19)
(3.32739 2.93085 -9.38694e-19)
(3.41195 2.85469 3.13847e-18)
(-0.133686 3.33007 -1.56099e-18)
(0.457953 3.24097 -2.46632e-18)
(1.17004 3.39025 1.37537e-18)
(1.86216 3.46996 -1.37855e-18)
(2.37759 3.44488 3.48849e-18)
(2.68203 3.36315 -3.69805e-18)
(2.88255 3.2432 -1.95956e-18)
(2.99866 3.12856 -5.30168e-18)
(3.0607 3.03447 -1.42771e-19)
(3.12494 2.94689 2.67874e-18)
(3.18683 2.85945 3.05567e-18)
(3.25164 2.77383 -2.50896e-18)
(0.145123 3.48949 0)
(0.73867 3.52768 1.01164e-18)
(1.39244 3.61577 -1.92754e-18)
(1.98631 3.59417 2.95443e-18)
(2.38544 3.49498 5.15646e-19)
(2.63579 3.36053 1.81659e-18)
(2.77956 3.22042 1.96365e-18)
(2.86574 3.08595 1.77516e-18)
(2.92736 2.96878 -3.61369e-18)
(2.98838 2.8618 3.17034e-18)
(3.0504 2.76021 -4.31789e-18)
(3.11488 2.66294 5.8146e-18)
(0.372453 3.62871 -2.65835e-18)
(0.931563 3.73784 1.27671e-18)
(1.5087 3.75602 3.79626e-18)
(2.00625 3.66637 0)
(2.33556 3.51764 -5.26078e-18)
(2.53017 3.35557 5.77639e-18)
(2.64925 3.19226 0)
(2.73143 3.04084 -4.37717e-18)
(2.79556 2.90618 3.80093e-18)
(2.85608 2.78432 0)
(2.91626 2.67172 2.16799e-19)
(2.97751 2.5664 3.53246e-18)
(0.543407 3.78365 0)
(1.05326 3.94165 -3.12118e-18)
(1.54618 3.89344 2.87457e-18)
(1.95792 3.75534 0)
(2.23133 3.56501 -3.63262e-18)
(2.39834 3.36866 5.43448e-19)
(2.50925 3.18047 5.22421e-18)
(2.59117 3.00894 4.74004e-18)
(2.65847 2.85562 -4.18564e-18)
(2.72066 2.71787 4.11198e-18)
(2.781 2.59274 -3.58062e-18)
(2.84091 2.47805 -1.00676e-17)
(0.671724 3.96738 0)
(1.11842 4.16106 2.90813e-18)
(1.52566 4.05448 -4.81076e-18)
(1.86379 3.87319 4.76088e-18)
(2.09651 3.64147 0)
(2.25108 3.40742 -6.03744e-18)
(2.36111 3.18904 5.7319e-18)
(2.44663 2.99203 8.03164e-20)
(2.51844 2.81679 -9.21855e-18)
(2.58344 2.66095 -4.25683e-18)
(2.64471 2.52159 -2.20018e-19)
(2.70396 2.39612 7.59309e-18)
(0.73061 4.1543 0)
(1.14018 4.40257 -3.82964e-18)
(1.46116 4.23363 -5.71235e-18)
(1.73048 4.00556 -4.09806e-18)
(1.93328 3.7329 7.96948e-18)
(2.08424 3.46064 0)
(2.20019 3.20893 0)
(2.29333 2.98336 0)
(2.37162 2.78403 0)
(2.44065 2.60853 4.44994e-18)
(2.50352 2.45376 -4.4075e-18)
(2.56247 2.31656 4.1994e-18)
(0.806915 4.45108 0)
(1.11766 4.66027 3.52214e-18)
(1.32771 4.38469 -6.52895e-19)
(1.54784 4.09232 4.7222e-18)
(1.73372 3.78135 4.48684e-18)
(1.88794 3.47841 -7.07551e-18)
(2.01442 3.20067 0)
(2.11857 2.95265 -1.9873e-19)
(2.20601 2.7341 -1.65534e-17)
(2.28135 2.54272 0)
(2.3476 2.37551 1.00142e-17)
(2.40767 2.22883 -4.66288e-18)
(0.957352 4.57633 0)
(0.978039 4.68295 3.77803e-18)
(1.08923 4.32883 9.82622e-18)
(1.28414 3.98215 -8.27176e-18)
(1.47213 3.667 -1.13743e-17)
(1.63893 3.36548 1.77512e-17)
(1.78196 3.08988 -1.94055e-19)
(1.90251 2.84282 -6.73227e-18)
(2.00382 2.62376 5.46547e-18)
(2.09001 2.43115 -1.14027e-17)
(2.16364 2.26289 -1.56753e-17)
(2.22842 2.11552 1.56735e-17)
(0.38911 4.18372 -1.91859e-18)
(0.592445 4.12046 -1.2606e-17)
(0.735649 3.7917 2.39151e-18)
(0.937685 3.49743 0)
(1.14504 3.2582 0)
(1.33438 3.0249 3.29948e-19)
(1.49892 2.80365 1.81609e-17)
(1.63976 2.59822 1.1111e-17)
(1.75887 2.4102 0)
(1.86029 2.24121 1.02546e-17)
(1.94583 2.09148 0)
(2.02003 1.95875 4.23576e-19)
(4.07073 2.72929 1.04748e-18)
(4.25433 2.59017 -7.30313e-19)
(4.39658 2.44649 -6.05444e-20)
(4.44625 2.24659 -4.89974e-19)
(4.45544 2.03919 -2.31186e-19)
(4.37279 1.80735 0)
(4.22784 1.57839 0)
(3.99074 1.34638 8.34622e-19)
(3.68172 1.12067 -9.82596e-19)
(3.24884 0.864499 0)
(2.78676 0.469584 0)
(2.65109 -0.0899661 -8.0456e-19)
(3.46952 3.13826 1.28298e-18)
(3.59056 3.0452 0)
(3.70945 2.91835 -8.9986e-19)
(3.81576 2.7523 3.56462e-19)
(3.89013 2.57239 2.41921e-19)
(3.91984 2.38722 2.54528e-18)
(3.89902 2.20575 -4.13823e-18)
(3.82243 2.04451 6.74074e-19)
(3.68983 1.91563 0)
(3.39798 1.79676 0)
(3.11498 1.67719 0)
(3.21337 1.27315 7.11587e-19)
(3.50163 2.76851 1.21658e-18)
(3.59163 2.66898 -3.33317e-18)
(3.67316 2.55932 9.26149e-19)
(3.73741 2.4452 2.28358e-18)
(3.77632 2.32937 -2.38701e-18)
(3.78488 2.22195 0)
(3.75994 2.13191 0)
(3.70099 2.06789 -1.93262e-19)
(3.61373 2.03827 1.06358e-18)
(3.45553 2.0299 0)
(3.21221 2.02731 0)
(3.39645 1.93111 -4.66708e-19)
(3.32336 2.6857 2.74711e-19)
(3.39577 2.59174 3.39048e-18)
(3.46285 2.49352 2.41199e-18)
(3.51841 2.39534 -2.43003e-18)
(3.55791 2.30299 0)
(3.57893 2.22346 1.48624e-18)
(3.57914 2.16413 0)
(3.56022 2.13242 2.5342e-18)
(3.52511 2.13578 -8.06351e-19)
(3.4487 2.19193 0)
(3.26111 2.28575 -5.23709e-19)
(3.55022 2.39114 6.23425e-19)
(3.1813 2.56751 -2.41017e-18)
(3.24652 2.47279 0)
(3.30723 2.38024 0)
(3.36025 2.29329 0)
(3.40385 2.21639 0)
(3.43736 2.15517 -2.6732e-18)
(3.45965 2.11881 -1.16659e-19)
(3.472 2.11142 -1.25836e-18)
(3.47962 2.14446 0)
(3.46895 2.23174 -9.91203e-19)
(3.34796 2.38407 4.84402e-19)
(3.75132 2.60801 -1.62363e-19)
(3.03941 2.46656 -1.92844e-19)
(3.10046 2.3715 -5.95952e-18)
(3.15908 2.28222 2.85018e-18)
(3.21398 2.20128 4.24278e-21)
(3.2649 2.13229 1.88295e-19)
(3.31223 2.08004 4.25338e-18)
(3.35765 2.05057 -1.29538e-19)
(3.40367 2.05036 -4.85404e-18)
(3.45276 2.09058 -1.96479e-18)
(3.50818 2.18796 1.00776e-18)
(3.46089 2.38224 -1.26611e-18)
(3.92001 2.72526 -5.18823e-19)
(2.90062 2.37209 9.66913e-18)
(2.95988 2.27399 3.18341e-18)
(3.01845 2.18413 0)
(3.07652 2.10417 0)
(3.13516 2.03674 1.82471e-19)
(3.19621 1.98553 -3.13513e-18)
(3.26255 1.95539 4.97147e-18)
(3.33816 1.95219 -1.13953e-19)
(3.42673 1.98628 1.71369e-18)
(3.53574 2.07626 0)
(3.56904 2.26536 -2.29224e-19)
(4.0678 2.6799 -7.862e-20)
(2.76209 2.2825 -3.64508e-18)
(2.81988 2.17926 -3.37359e-18)
(2.87827 2.08602 3.6319e-18)
(2.93868 2.00342 -3.4423e-18)
(3.00338 1.93297 -4.7893e-21)
(3.07549 1.87721 6.99466e-18)
(3.15936 1.83954 -3.26182e-18)
(3.26092 1.82476 1.85814e-18)
(3.386 1.84182 0)
(3.54767 1.91042 1.13871e-18)
(3.66636 2.08458 5.89287e-19)
(4.17398 2.53523 -8.99277e-19)
(2.61906 2.19428 4.05878e-18)
(2.67501 2.08456 -3.94239e-18)
(2.73227 1.98616 -3.7097e-18)
(2.79322 1.89858 -7.7711e-18)
(2.86112 1.82201 7.56655e-18)
(2.94023 1.7577 -7.36273e-18)
(3.03621 1.7073 0)
(3.15718 1.67376 -1.8059e-18)
(3.31173 1.66332 0)
(3.51968 1.694 0)
(3.72256 1.82802 0)
(4.22752 2.23926 4.34265e-19)
(2.46356 2.09965 4.50733e-18)
(2.51795 1.98456 -9.03953e-18)
(2.57359 1.88149 8.85429e-18)
(2.63353 1.78875 8.56476e-18)
(2.70174 1.70527 4.17731e-18)
(2.783 1.63068 0)
(2.8844 1.56464 0)
(3.01538 1.50745 4.25379e-18)
(3.18833 1.46117 0)
(3.43352 1.44071 -1.2137e-18)
(3.70176 1.49749 7.92305e-19)
(4.21128 1.78955 -1.27631e-18)
(2.28643 1.98634 -1.02152e-17)
(2.34119 1.87095 9.44857e-18)
(2.39608 1.76701 -9.259e-18)
(2.45444 1.67187 -2.33984e-17)
(2.52082 1.5834 -2.14688e-19)
(2.59956 1.49969 1.25341e-19)
(2.69887 1.41824 -4.62899e-18)
(2.82806 1.33616 -4.32286e-18)
(3.00296 1.24899 0)
(3.26337 1.16604 3.72301e-18)
(3.56967 1.09327 9.17775e-19)
(4.07158 1.04365 -1.80435e-18)
(2.08404 1.84184 -4.20792e-19)
(2.14215 1.73527 0)
(2.19803 1.6375 0)
(2.25489 1.54545 4.47904e-18)
(2.31751 1.45638 1.38271e-17)
(2.38951 1.36775 -4.55536e-18)
(2.4789 1.27508 -1.93111e-19)
(2.59291 1.17291 -2.42866e-18)
(2.74944 1.04799 -2.33441e-18)
(2.977 0.899951 -2.36707e-18)
(3.29321 0.66735 0)
(3.664 -0.0641719 2.41082e-18)
(2.22496 -0.189307 -4.74735e-22)
(1.93178 -0.209194 0)
(1.76734 -0.307001 -1.43871e-19)
(1.65265 -0.408701 0)
(1.64425 -0.521221 -1.08306e-18)
(1.82224 -0.750213 9.39031e-19)
(1.71867 -1.45496 0)
(1.74622 -2.53486 1.16324e-19)
(2.33591 -2.96441 -3.77215e-19)
(2.54189 -3.19207 3.61064e-19)
(2.76138 -3.52381 -5.80259e-19)
(2.74226 -3.80296 -5.20766e-19)
(2.76457 0.449836 -2.70593e-19)
(2.3739 0.236727 -1.17288e-19)
(2.43674 -0.058238 5.2794e-19)
(2.51536 -0.544015 0)
(2.57896 -1.35601 -6.37651e-19)
(2.93085 -2.16872 3.42139e-19)
(3.0881 -2.71863 0)
(3.1316 -2.96321 1.07867e-18)
(3.18393 -3.03766 -3.09377e-18)
(3.20032 -3.10474 1.85377e-18)
(3.20472 -3.23563 1.06234e-18)
(3.19058 -3.34349 -3.3711e-18)
(3.05981 0.340241 -1.642e-19)
(2.79061 -0.123074 0)
(2.92249 -0.779765 -1.61993e-18)
(3.11618 -1.54181 0)
(3.24377 -2.20475 0)
(3.29751 -2.66127 -8.30417e-19)
(3.23389 -2.92842 4.38906e-18)
(3.13548 -3.09166 -3.17954e-18)
(3.06818 -3.15768 9.33708e-19)
(2.99954 -3.23686 0)
(2.93026 -3.32711 2.3869e-18)
(2.85407 -3.41161 -1.33375e-18)
(3.33016 0.134407 9.78742e-19)
(3.24124 -0.456629 1.37089e-18)
(3.39043 -1.16836 1.02408e-18)
(3.47006 -1.86034 2.07665e-18)
(3.44513 -2.37622 -1.62933e-18)
(3.36337 -2.6812 -1.34993e-18)
(3.2434 -2.88197 0)
(3.12853 -2.99837 0)
(3.03431 -3.0605 1.70855e-18)
(2.94663 -3.12473 0)
(2.85911 -3.18666 3.72006e-19)
(2.77341 -3.25142 1.07858e-18)
(3.48949 -0.144692 1.82842e-18)
(3.52781 -0.737524 -8.14839e-19)
(3.61592 -1.39089 -1.92917e-18)
(3.59449 -1.98478 0)
(3.49542 -2.38436 0)
(3.36088 -2.63507 2.39887e-18)
(3.22073 -2.77914 0)
(3.08613 -2.86547 -4.1255e-18)
(2.96884 -2.92718 -1.69759e-18)
(2.86176 -2.98822 3.17237e-18)
(2.76008 -3.05027 -4.32066e-18)
(2.66273 -3.11474 2.77059e-18)
(3.62867 -0.371966 -1.45773e-18)
(3.73796 -0.930553 -1.12866e-18)
(3.75629 -1.50736 1.66328e-18)
(3.66683 -2.00499 2.52683e-19)
(3.51819 -2.33466 2.6437e-18)
(3.35609 -2.52959 -5.56912e-18)
(3.19271 -2.64888 5.0474e-18)
(3.0412 -2.73121 4.42702e-19)
(2.90643 -2.79542 0)
(2.78447 -2.85599 0)
(2.67177 -2.91621 6.80212e-18)
(2.56637 -2.97747 3.20447e-20)
(3.78363 -0.543007 -5.39801e-20)
(3.94183 -1.05242 -1.7321e-18)
(3.89384 -1.54511 0)
(3.75596 -1.95694 -3.61392e-18)
(3.5657 -2.23065 3.84237e-18)
(3.36933 -2.39789 9.46872e-18)
(3.18107 -2.50897 5.70435e-18)
(3.00945 -2.59102 6.57936e-19)
(2.85603 -2.65839 -8.75741e-18)
(2.71818 -2.72065 3.85452e-18)
(2.59295 -2.78103 4.07984e-18)
(2.47818 -2.84097 2.04818e-19)
(3.96739 -0.671442 1.86809e-19)
(4.16133 -1.11779 2.90971e-18)
(4.05499 -1.52488 0)
(3.87391 -1.86308 -4.76322e-18)
(3.64229 -2.09599 -3.49304e-18)
(3.40822 -2.25074 5.29894e-19)
(3.18979 -2.36091 -1.09259e-17)
(2.99269 -2.44655 3.38228e-19)
(2.81735 -2.51844 -2.33443e-19)
(2.66141 -2.5835 4.47307e-18)
(2.52195 -2.64482 -3.61305e-18)
(2.39639 -2.70411 1.85629e-19)
(4.15433 -0.730509 -3.58257e-18)
(4.40286 -1.13981 1.55365e-18)
(4.23413 -1.46067 -8.31733e-18)
(4.0063 -1.73 4.09942e-18)
(3.73375 -1.93291 0)
(3.46151 -2.08399 0)
(3.20976 -2.20006 6.21881e-18)
(2.98412 -2.2933 1.10695e-17)
(2.7847 -2.37166 -4.97197e-18)
(2.6091 -2.44076 -4.4525e-18)
(2.45424 -2.50368 -4.21391e-18)
(2.31694 -2.56268 0)
(4.45109 -0.807014 6.88678e-20)
(4.6605 -1.11735 5.34074e-18)
(4.38507 -1.32737 1.0365e-17)
(4.09292 -1.5475 0)
(3.7821 -1.73345 7.91098e-18)
(3.47922 -1.88775 0)
(3.20148 -2.01431 2.91433e-19)
(2.95342 -2.11854 -5.50685e-18)
(2.7348 -2.20606 5.76923e-18)
(2.54334 -2.28147 0)
(2.37603 -2.34777 0)
(2.22927 -2.40789 -9.61041e-18)
(4.57615 -0.957406 -6.85075e-18)
(4.68295 -0.977994 3.77612e-18)
(4.32897 -1.08909 5.38141e-19)
(3.98249 -1.28394 -9.07528e-18)
(3.66749 -1.4719 -3.54296e-18)
(3.36607 -1.63872 -3.55377e-18)
(3.09052 -1.7818 -6.79615e-18)
(2.84346 -1.90243 -1.88778e-17)
(2.62437 -2.00381 -5.46731e-18)
(2.43172 -2.09007 -1.14073e-17)
(2.26339 -2.16376 1.0928e-17)
(2.11594 -2.22859 9.98772e-18)
(4.1835 -0.389028 3.66913e-18)
(4.12028 -0.592383 -1.45109e-18)
(3.79159 -0.735539 3.47861e-19)
(3.49744 -0.937494 7.46086e-18)
(3.25836 -1.1448 0)
(3.02519 -1.33415 -6.5997e-18)
(2.80404 -1.49873 5.86597e-18)
(2.59865 -1.63962 5.18825e-18)
(2.41065 -1.75879 -1.65634e-17)
(2.24165 -1.86028 1.02566e-17)
(2.09189 -1.94587 -9.96051e-18)
(1.9591 -2.02011 0)
(2.72802 -4.06965 -7.68167e-19)
(2.58901 -4.25306 1.886e-18)
(2.44548 -4.3955 -1.1625e-18)
(2.24569 -4.4451 -5.54221e-19)
(2.03842 -4.45444 1.81445e-19)
(1.8067 -4.37177 4.81547e-20)
(1.57785 -4.22699 -1.00408e-19)
(1.34595 -3.98993 -2.76895e-19)
(1.12029 -3.68109 -9.82212e-19)
(0.864195 -3.24835 0)
(0.469202 -2.78641 0)
(-0.0898567 -2.65088 -8.02713e-19)
(3.13732 -3.46903 -2.75459e-20)
(3.04431 -3.58996 1.8621e-18)
(2.91754 -3.70883 -8.99857e-19)
(2.75157 -3.81507 0)
(2.57171 -3.88944 1.54337e-18)
(2.3866 -3.91918 0)
(2.20519 -3.8984 1.23131e-18)
(2.04399 -3.82187 2.23774e-18)
(1.91516 -3.68935 -1.92201e-18)
(1.79632 -3.39762 0)
(1.67671 -3.1147 0)
(1.27236 -3.21327 -1.34165e-20)
(2.76785 -3.50125 8.51534e-19)
(2.66833 -3.59119 -8.05277e-19)
(2.55868 -3.67271 9.26597e-19)
(2.44459 -3.73694 0)
(2.32877 -3.77587 -1.05944e-18)
(2.22137 -3.78445 2.76646e-18)
(2.13136 -3.75955 -3.985e-18)
(2.06735 -3.70065 -4.74627e-18)
(2.03773 -3.61346 3.00362e-18)
(2.02934 -3.45535 0)
(2.02671 -3.21211 5.74525e-19)
(1.93045 -3.39648 1.54099e-19)
(2.68524 -3.32312 1.03298e-18)
(2.59126 -3.39551 -2.35432e-18)
(2.49303 -3.46257 2.41316e-18)
(2.39484 -3.51812 -2.43112e-18)
(2.30248 -3.55764 0)
(2.22294 -3.57867 1.48683e-18)
(2.16359 -3.57891 1.16498e-18)
(2.13188 -3.56003 7.13367e-19)
(2.13521 -3.52496 -1.63103e-18)
(2.19133 -3.44859 0)
(2.2851 -3.26103 -3.49126e-19)
(2.39029 -3.55021 5.63913e-19)
(2.56725 -3.18116 2.69294e-18)
(2.47248 -3.24638 -1.42339e-18)
(2.37989 -3.30709 0)
(2.29291 -3.36012 0)
(2.21597 -3.40373 1.44283e-18)
(2.15471 -3.43726 -1.22637e-18)
(2.11831 -3.45956 -2.13431e-19)
(2.11089 -3.47193 0)
(2.1439 -3.47958 -8.1867e-19)
(2.23114 -3.46891 9.9148e-19)
(2.38342 -3.34796 -1.05504e-18)
(2.60722 -3.75138 -2.57612e-19)
(2.46647 -3.03938 -5.93195e-18)
(2.37134 -3.10045 2.87989e-18)
(2.282 -3.15907 5.8882e-18)
(2.20101 -3.21399 4.23221e-21)
(2.13197 -3.26492 -7.23332e-18)
(2.07965 -3.31226 -3.10721e-18)
(2.05013 -3.35768 -2.10645e-19)
(2.04987 -3.4037 0)
(2.09005 -3.4528 0)
(2.18738 -3.50822 -1.00803e-18)
(2.38157 -3.46092 -7.35591e-19)
(2.72449 -3.92007 2.27397e-19)
(2.37214 -2.90071 3.30061e-18)
(2.27396 -2.95999 -6.56558e-18)
(2.18403 -3.01857 -2.95516e-18)
(2.104 -3.07665 -1.65273e-19)
(2.0365 -3.1353 2.92562e-18)
(1.98522 -3.19635 2.93763e-18)
(1.95502 -3.26269 1.67867e-18)
(1.95176 -3.33829 1.65794e-18)
(1.98579 -3.42685 -1.85451e-18)
(2.07571 -3.53585 0)
(2.26476 -3.56912 1.19421e-18)
(2.67919 -4.0679 -3.50475e-19)
(2.28268 -2.76227 0)
(2.17935 -2.82008 3.37575e-18)
(2.08602 -2.87849 0)
(2.00334 -2.93891 -1.71992e-19)
(1.93282 -3.0036 -4.76876e-21)
(1.87697 -3.07572 6.99879e-18)
(1.83923 -3.15958 -6.8765e-18)
(1.82438 -3.26112 0)
(1.84137 -3.38619 -2.0089e-18)
(1.90991 -3.54783 1.13909e-18)
(2.08402 -3.66647 -2.23451e-18)
(2.53462 -4.17407 1.14669e-18)
(2.19456 -2.6193 4.0614e-18)
(2.08475 -2.67527 -3.94498e-18)
(1.98626 -2.73255 -4.00812e-18)
(1.89858 -2.7935 3.95366e-18)
(1.82193 -2.86141 3.79221e-18)
(1.75754 -2.94051 -1.12766e-17)
(1.70705 -3.03649 3.59448e-18)
(1.67344 -3.15744 0)
(1.66292 -3.31196 1.88016e-18)
(1.69355 -3.51988 0)
(1.82753 -3.7227 2.76435e-18)
(2.23875 -4.22763 -2.06293e-18)
(2.09998 -2.46381 0)
(1.9848 -2.51822 -9.04518e-18)
(1.88164 -2.57388 -4.70266e-18)
(1.78881 -2.63382 -8.33766e-18)
(1.70525 -2.70204 4.1799e-18)
(1.63057 -2.78331 4.00985e-18)
(1.56444 -2.8847 0)
(1.50716 -3.01567 0)
(1.46082 -3.18859 0)
(1.4403 -3.43375 0)
(1.49707 -3.70194 -7.91655e-19)
(1.78916 -4.21138 -9.98122e-20)
(1.98668 -2.28663 4.99006e-18)
(1.8712 -2.34142 4.58968e-18)
(1.76717 -2.39633 1.90278e-17)
(1.67195 -2.45471 4.90343e-18)
(1.5834 -2.52111 1.87079e-17)
(1.49961 -2.59985 -4.54686e-18)
(1.41807 -2.69916 -4.63152e-18)
(1.33591 -2.82835 0)
(1.24867 -3.00323 -4.56684e-18)
(1.16567 -3.26362 -2.47245e-18)
(1.09291 -3.56986 -1.85562e-18)
(1.0434 -4.07169 -1.12474e-25)
(1.84213 -2.08415 0)
(1.73549 -2.1423 0)
(1.63765 -2.19821 -1.8974e-17)
(1.54553 -2.2551 -1.392e-17)
(1.45637 -2.31774 -4.47808e-18)
(1.36767 -2.38977 0)
(1.27492 -2.47917 4.58472e-18)
(1.17268 -2.59319 0)
(1.0477 -2.74971 -1.83385e-19)
(0.899616 -2.97725 2.36772e-18)
(0.667068 -3.29341 6.785e-19)
(-0.0642426 -3.66417 4.78059e-18)
(-0.189247 -2.22489 9.46742e-20)
(-0.208894 -1.93201 2.20863e-19)
(-0.307181 -1.7678 -2.22054e-19)
(-0.408895 -1.65284 5.41258e-20)
(-0.521349 -1.64568 0)
(-0.75377 -1.82438 1.33385e-19)
(-1.46502 -1.71626 0)
(-2.542 -1.75367 4.93289e-19)
(-2.96442 -2.34118 1.12704e-18)
(-3.19486 -2.54601 -1.40867e-19)
(-3.52515 -2.76468 -5.38837e-19)
(-3.80511 -2.74507 1.09378e-18)
(0.449816 -2.76473 4.28523e-19)
(0.236497 -2.374 -4.61267e-19)
(-0.0588635 -2.43772 5.27533e-19)
(-0.547329 -2.51609 -7.18891e-20)
(-1.3633 -2.58199 -6.33056e-19)
(-2.17331 -2.93587 -1.33756e-19)
(-2.72002 -3.08982 -7.74598e-19)
(-2.96251 -3.13461 -2.08443e-18)
(-3.03612 -3.18613 3.20995e-18)
(-3.10462 -3.20273 -7.15566e-19)
(-3.23537 -3.20682 7.65364e-19)
(-3.34378 -3.19242 5.21775e-19)
(0.339383 -3.06012 -3.27925e-19)
(-0.125777 -2.79124 0)
(-0.784477 -2.92425 0)
(-1.54724 -3.11927 -1.00625e-18)
(-2.20788 -3.24579 0)
(-2.66238 -3.29917 -1.06543e-18)
(-2.92854 -3.2343 7.69773e-19)
(-3.09107 -3.13649 2.49923e-18)
(-3.15682 -3.0694 -1.16864e-18)
(-3.23652 -3.00086 -1.80907e-18)
(-3.32681 -2.93162 -3.32051e-18)
(-3.41151 -2.85536 3.13269e-18)
(0.132351 -3.3302 -1.96073e-18)
(-0.460162 -3.24225 -1.36925e-18)
(-1.17207 -3.39164 1.78056e-18)
(-1.86322 -3.47104 6.96396e-19)
(-2.37733 -3.44541 0)
(-2.68112 -3.36361 -4.35995e-18)
(-2.88159 -3.24361 3.18473e-18)
(-2.99755 -3.12908 0)
(-3.0597 -3.03504 2.58708e-18)
(-3.12417 -2.94745 -3.83254e-18)
(-3.18616 -2.85997 2.68083e-18)
(-3.25116 -2.77432 3.5049e-19)
(-0.147306 -3.48896 2.69113e-18)
(-0.740904 -3.52824 2.43144e-18)
(-1.3939 -3.61611 5.72702e-19)
(-1.98658 -3.59424 0)
(-2.38474 -3.49496 -2.84968e-18)
(-2.63481 -3.36069 3.84943e-18)
(-2.77845 -3.22058 0)
(-2.86471 -3.08623 -2.23676e-18)
(-2.92648 -2.96912 -2.03628e-18)
(-2.98767 -2.86217 3.16615e-18)
(-3.04981 -2.76058 0)
(-3.11443 -2.6633 -2.501e-18)
(-0.374679 -3.62794 1.19704e-18)
(-0.933492 -3.73786 4.89897e-19)
(-1.50977 -3.75573 -1.65993e-18)
(-2.00622 -3.66602 -7.22756e-18)
(-2.33486 -3.5174 -1.87291e-19)
(-2.52921 -3.3555 5.77115e-18)
(-2.64832 -3.19228 0)
(-2.73059 -3.04098 6.62882e-18)
(-2.79482 -2.90639 -3.89133e-18)
(-2.85546 -2.78456 3.47755e-18)
(-2.91575 -2.67197 2.16605e-19)
(-2.97708 -2.56665 -3.19461e-20)
(-0.545508 -3.78272 -1.35755e-18)
(-1.05487 -3.94133 -1.16688e-18)
(-1.54693 -3.89279 0)
(-1.95778 -3.75474 7.72162e-18)
(-2.23072 -3.5646 -1.0895e-17)
(-2.39759 -3.36845 -1.75968e-19)
(-2.50853 -3.18041 -1.09104e-17)
(-2.59051 -3.00899 3.90856e-19)
(-2.65788 -2.85573 -4.18138e-18)
(-2.72015 -2.71801 -4.108e-18)
(-2.78055 -2.5929 4.07308e-18)
(-2.84052 -2.47822 -3.4121e-18)
(-0.673252 -3.96644 -1.1916e-19)
(-1.11966 -4.16048 -1.5412e-18)
(-1.52618 -4.05361 0)
(-1.86369 -3.87241 4.75443e-18)
(-2.09608 -3.64094 3.29949e-18)
(-2.25055 -3.40711 2.8546e-18)
(-2.36057 -3.18891 -4.15601e-19)
(-2.44613 -2.992 -8.02405e-20)
(-2.51798 -2.81683 -4.89497e-18)
(-2.58302 -2.66103 -4.71823e-19)
(-2.64432 -2.52169 1.97373e-19)
(-2.7036 -2.39623 0)
(-0.731532 -4.15341 2.22043e-18)
(-1.14094 -4.40177 0)
(-1.46152 -4.23266 0)
(-1.73048 -4.00467 -4.09494e-18)
(-1.93304 -3.73225 3.5305e-18)
(-2.0839 -3.46023 -6.96067e-18)
(-2.1998 -3.2087 0)
(-2.29294 -2.98325 5.41868e-18)
(-2.37124 -2.78399 -2.16557e-19)
(-2.44029 -2.60854 4.44691e-18)
(-2.50317 -2.4538 -4.56674e-18)
(-2.56215 -2.31662 8.71271e-18)
(-0.807147 -4.45011 4.79823e-18)
(-1.11833 -4.65945 -1.82541e-18)
(-1.32809 -4.38376 -5.50848e-18)
(-1.54796 -4.09143 -9.08767e-18)
(-1.73364 -3.78065 0)
(-1.88775 -3.47792 6.45434e-18)
(-2.01416 -3.20036 -1.26788e-17)
(-2.11828 -2.95247 5.5475e-18)
(-2.2057 -2.734 5.76284e-18)
(-2.28105 -2.54268 0)
(-2.3473 -2.37551 -5.32829e-18)
(-2.40738 -2.22887 -8.98968e-18)
(-0.957164 -4.57598 -6.80667e-18)
(-0.978291 -4.6825 1.71849e-18)
(-1.08954 -4.32821 4.64374e-18)
(-1.28434 -3.98146 3.8844e-18)
(-1.4722 -3.66642 -4.13452e-20)
(-1.63887 -3.36505 -1.09318e-17)
(-1.78182 -3.08958 1.29528e-17)
(-1.90233 -2.84264 2.48312e-17)
(-2.00361 -2.62366 -1.71541e-17)
(-2.08978 -2.43112 -1.13957e-17)
(-2.16341 -2.2629 1.03401e-17)
(-2.2282 -2.11556 0)
(-0.388841 -4.1836 5.67832e-18)
(-0.592612 -4.12049 1.90593e-18)
(-0.735982 -3.79156 2.04346e-18)
(-0.937973 -3.49718 7.98852e-18)
(-1.14522 -3.25794 0)
(-1.33447 -3.02469 6.26723e-18)
(-1.49893 -2.80353 -1.22916e-17)
(-1.6397 -2.59817 -5.418e-18)
(-1.75878 -2.41021 -5.46138e-18)
(-1.86018 -2.24127 1.02508e-17)
(-1.94571 -2.09157 5.28994e-18)
(-2.0199 -1.95886 1.51263e-17)
(-4.07104 -2.73031 2.55096e-19)
(-4.25474 -2.59097 4.69734e-19)
(-4.39673 -2.44708 5.01885e-19)
(-4.44643 -2.24705 -1.25814e-18)
(-4.45551 -2.03949 4.14183e-19)
(-4.37287 -1.80757 0)
(-4.22786 -1.57851 -5.00697e-19)
(-3.99077 -1.34644 3.7848e-19)
(-3.68172 -1.12068 0)
(-3.24888 -0.864481 1.01963e-19)
(-2.7868 -0.469588 0)
(-2.65113 0.0899969 0)
(-3.46936 -3.13888 -3.64569e-18)
(-3.5905 -3.04565 2.7481e-18)
(-3.70941 -2.91867 2.0274e-18)
(-3.81576 -2.75252 -8.15055e-19)
(-3.89011 -2.57255 0)
(-3.91982 -2.38733 0)
(-3.899 -2.20583 1.4329e-18)
(-3.82242 -2.04455 -1.57275e-18)
(-3.68982 -1.91563 0)
(-3.398 -1.79675 5.90494e-19)
(-3.11499 -1.67719 -6.81652e-20)
(-3.21331 -1.27329 -1.08518e-18)
(-3.5013 -2.76909 1.27533e-18)
(-3.59138 -2.66947 -2.16387e-18)
(-3.67297 -2.55972 0)
(-3.73727 -2.44552 -2.29854e-18)
(-3.77621 -2.32961 -2.47279e-18)
(-3.7848 -2.22213 5.43106e-18)
(-3.75989 -2.13203 -4.86579e-18)
(-3.70096 -2.06795 0)
(-3.6137 -2.03828 0)
(-3.45551 -2.02989 0)
(-3.21222 -2.02729 -5.23652e-19)
(-3.39637 -1.93112 1.58411e-19)
(-3.32299 -2.68613 -1.03087e-18)
(-3.39551 -2.59211 -3.21627e-19)
(-3.46266 -2.49383 0)
(-3.51827 -2.39559 -3.02841e-19)
(-3.55781 -2.30318 0)
(-3.57885 -2.2236 0)
(-3.57908 -2.16422 1.30764e-18)
(-3.56017 -2.13248 -1.6189e-18)
(-3.52507 -2.13579 1.77989e-18)
(-3.44867 -2.19191 0)
(-3.26111 -2.28573 -5.2358e-19)
(-3.55016 -2.39119 -6.23265e-19)
(-3.18093 -2.56785 5.60098e-18)
(-3.24624 -2.47308 -1.42119e-18)
(-3.30701 -2.3805 2.59873e-18)
(-3.36008 -2.29351 1.19548e-18)
(-3.40371 -2.21657 -4.09981e-18)
(-3.43725 -2.1553 0)
(-3.45955 -2.11889 -1.4259e-18)
(-3.47192 -2.11146 0)
(-3.47956 -2.14447 0)
(-3.4689 -2.23172 9.90696e-19)
(-3.34795 -2.38404 3.57461e-20)
(-3.75122 -2.60799 7.06067e-19)
(-3.03905 -2.46681 -2.75697e-18)
(-3.10016 -2.37173 -2.02965e-19)
(-3.15883 -2.28242 0)
(-3.21377 -2.20145 0)
(-3.26473 -2.13244 -4.57018e-18)
(-3.31209 -2.08014 2.91356e-18)
(-3.35753 -2.05064 3.01309e-18)
(-3.40358 -2.05039 1.5927e-18)
(-3.45269 -2.09058 -3.80985e-18)
(-3.50812 -2.18793 -1.00736e-18)
(-3.46089 -2.38219 0)
(-3.91994 -2.72524 8.10178e-19)
(-2.90028 -2.37227 -6.7629e-18)
(-2.95959 -2.27415 2.82405e-18)
(-3.01819 -2.18428 3.14104e-18)
(-3.0763 -2.1043 1.68442e-19)
(-3.13498 -2.03685 -3.52135e-19)
(-3.19605 -1.98561 -3.30345e-18)
(-3.26242 -1.95544 -4.8761e-18)
(-3.33807 -1.95221 -1.77227e-18)
(-3.42666 -1.98626 1.71252e-18)
(-3.53569 -2.07621 0)
(-3.56903 -2.2653 2.01811e-18)
(-4.06774 -2.67983 -5.20096e-19)
(-2.76176 -2.28262 7.11923e-18)
(-2.81959 -2.17938 -3.87145e-18)
(-2.87802 -2.08613 -3.62885e-18)
(-2.93846 -2.00352 -6.70699e-18)
(-3.00319 -1.93306 6.66352e-18)
(-3.07534 -1.87726 -1.74568e-19)
(-3.15924 -1.83956 1.03082e-17)
(-3.26083 -1.82475 1.66523e-18)
(-3.38595 -1.84177 2.00671e-18)
(-3.54763 -1.91035 0)
(-3.66636 -2.0845 -1.38976e-18)
(-4.17394 -2.53516 -6.77862e-19)
(-2.61875 -2.19435 0)
(-2.67473 -2.08464 3.78116e-18)
(-2.73202 -1.98624 3.70672e-18)
(-2.79301 -1.89865 -3.81689e-18)
(-2.86095 -1.82207 -1.43142e-19)
(-2.94009 -1.75774 -3.9039e-18)
(-3.03612 -1.70731 -3.58962e-18)
(-3.15712 -1.67374 0)
(-3.3117 -1.66327 -1.87809e-18)
(-3.51966 -1.69392 -1.17351e-18)
(-3.72256 -1.82794 4.51444e-18)
(-4.2275 -2.23918 -9.85973e-19)
(-2.46329 -2.09969 0)
(-2.5177 -1.98462 0)
(-2.57337 -1.88155 0)
(-2.63335 -1.78881 -1.29501e-17)
(-2.70161 -1.70532 8.32277e-18)
(-2.78292 -1.63071 8.14361e-18)
(-2.88436 -1.56465 0)
(-3.01537 -1.50742 -4.25053e-18)
(-3.18835 -1.46111 0)
(-3.43354 -1.44063 -2.46682e-18)
(-3.70178 -1.49741 -7.91226e-19)
(-4.21128 -1.78949 -1.27626e-18)
(-2.28622 -1.9864 0)
(-2.341 -1.87101 0)
(-2.39593 -1.76707 9.75082e-18)
(-2.45434 -1.67193 1.37914e-17)
(-2.52076 -1.58344 3.62472e-19)
(-2.59954 -1.49972 4.66599e-18)
(-2.69889 -1.41824 -2.27644e-18)
(-2.82811 -1.33613 6.53286e-18)
(-3.00303 -1.24894 4.56148e-18)
(-3.26343 -1.16597 2.31268e-18)
(-3.56972 -1.09319 -1.85466e-18)
(-4.07161 -1.04363 -1.97627e-18)
(-2.08392 -1.84195 0)
(-2.14206 -1.73537 0)
(-2.19797 -1.63759 -9.27534e-18)
(-2.25488 -1.54553 4.88085e-18)
(-2.31753 -1.45644 -4.47477e-18)
(-2.38957 -1.36779 -4.55323e-18)
(-2.479 -1.27509 4.77444e-18)
(-2.59304 -1.17289 0)
(-2.74958 -1.04795 -4.60538e-18)
(-2.97712 -0.899907 -2.45014e-18)
(-3.29329 -0.667296 2.32911e-18)
(-3.66404 0.0641728 -4.78016e-18)
(-2.22495 0.189203 9.78846e-20)
(-1.93172 0.209088 0)
(-1.76721 0.306903 0)
(-1.65253 0.4086 7.59532e-19)
(-1.64417 0.521111 -1.08816e-18)
(-1.82227 0.750223 0)
(-1.7185 1.45555 0)
(-1.74661 2.53574 4.94765e-19)
(-2.33648 2.965 8.00728e-19)
(-2.54245 3.19284 4.48189e-19)
(-2.76202 3.52458 -1.11288e-18)
(-2.74286 3.80381 8.49921e-19)
(-2.76462 -0.449996 -5.83536e-19)
(-2.37378 -0.236843 0)
(-2.43658 0.0582018 0)
(-2.51529 0.544105 -9.97868e-19)
(-2.57907 1.35636 1.25243e-18)
(-2.93118 2.1694 -1.42502e-18)
(-3.08844 2.71932 7.35518e-19)
(-3.13204 2.96382 8.80268e-19)
(-3.18443 3.03818 -4.53648e-19)
(-3.20088 3.10527 7.44292e-19)
(-3.20533 3.23614 0)
(-3.19122 3.344 -1.29747e-18)
(-3.05991 -0.340514 3.28044e-19)
(-2.79052 0.122887 0)
(-2.92238 0.779831 0)
(-3.11619 1.54221 -6.24237e-19)
(-3.24392 2.20551 4.29499e-19)
(-3.29773 2.66213 -1.39172e-18)
(-3.23409 2.92921 0)
(-3.13575 3.09235 -3.46666e-18)
(-3.0685 3.15828 3.41588e-18)
(-2.99989 3.23744 -9.8074e-19)
(-2.93064 3.32765 -2.3286e-18)
(-2.85447 3.41212 3.14e-18)
(-3.33032 -0.13463 -9.78059e-19)
(-3.24124 0.456587 1.3704e-18)
(-3.39043 1.16865 0)
(-3.47019 1.86102 6.96689e-19)
(-3.44528 2.3771 -6.51371e-19)
(-3.36351 2.68199 1.34934e-18)
(-3.24356 2.8827 0)
(-3.12873 2.99899 -1.90876e-18)
(-3.03455 3.06104 -4.30122e-18)
(-2.9469 3.1252 2.68035e-18)
(-2.8594 3.18707 2.6851e-18)
(-2.77374 3.25178 -5.37276e-18)
(-3.48966 0.144495 1.3492e-18)
(-3.52786 0.737575 -1.01234e-18)
(-3.616 1.39128 1.92843e-18)
(-3.59458 1.9855 0)
(-3.49549 2.38514 -5.98543e-18)
(-3.36095 2.63582 4.43574e-18)
(-3.2208 2.77977 2.53038e-18)
(-3.08622 2.86599 1.77663e-18)
(-2.96895 2.9276 0)
(-2.86191 2.98857 0)
(-2.76025 3.05055 0)
(-2.66294 3.11498 -5.42251e-19)
(-3.6288 0.371804 2.91638e-18)
(-3.738 0.930664 0)
(-3.75635 1.50781 -1.66283e-18)
(-3.66683 2.0057 3.74527e-18)
(-3.51816 2.33541 2.63095e-18)
(-3.35603 2.53024 -5.52492e-18)
(-3.19266 2.64941 2.60006e-18)
(-3.04115 2.73162 -9.06346e-18)
(-2.90641 2.79573 -9.52157e-20)
(-2.78448 2.85623 -3.01848e-19)
(-2.67182 2.91638 2.17063e-19)
(-2.56646 2.9776 9.23419e-18)
(-3.78374 0.542876 -4.79915e-18)
(-3.94184 1.05255 3.12354e-18)
(-3.89384 1.54556 -4.88322e-18)
(-3.75586 1.95759 -3.61346e-18)
(-3.56554 2.2313 -6.86523e-18)
(-3.36914 2.39843 -3.63409e-18)
(-3.18088 2.50938 -5.39908e-18)
(-3.00927 2.59132 8.98773e-18)
(-2.85588 2.6586 0)
(-2.71806 2.72078 7.73983e-18)
(-2.59289 2.7811 -1.08605e-17)
(-2.47816 2.84099 3.644e-18)
(-3.96747 0.671368 -2.80324e-18)
(-4.16133 1.11793 -4.632e-18)
(-4.05494 1.52528 7.36684e-18)
(-3.87375 1.86362 0)
(-3.64203 2.09652 -4.0307e-18)
(-3.40791 2.25116 6.04326e-18)
(-3.18946 2.36122 -2.75884e-19)
(-2.99238 2.44675 8.04258e-20)
(-2.81707 2.51855 -4.58791e-18)
(-2.66118 2.58354 -8.50874e-18)
(-2.52177 2.6448 3.7905e-18)
(-2.39625 2.70404 -3.8077e-18)
(-4.1544 0.730441 2.22315e-18)
(-4.40289 1.13997 0)
(-4.23409 1.461 0)
(-4.00612 1.73042 0)
(-3.73345 1.93331 3.53551e-18)
(-3.46114 2.08431 0)
(-3.20936 2.20027 -3.48992e-19)
(-2.98372 2.29342 1.08024e-17)
(-2.78433 2.3717 2.25143e-19)
(-2.60877 2.44073 4.45342e-18)
(-2.45396 2.50359 -4.41103e-18)
(-2.31672 2.56254 1.29291e-17)
(-4.4512 0.807037 6.88633e-20)
(-4.66057 1.11747 9.69593e-18)
(-4.38504 1.32761 -2.53638e-18)
(-4.09276 1.5478 0)
(-3.78181 1.73374 0)
(-3.47884 1.88797 0)
(-3.20105 2.01446 0)
(-2.95298 2.11861 5.77318e-18)
(-2.73438 2.20605 -2.17555e-17)
(-2.54295 2.28139 -1.05336e-17)
(-2.37569 2.34764 1.00213e-17)
(-2.22898 2.4077 5.27548e-18)
(-4.57621 0.95748 -6.80668e-18)
(-4.68295 0.978099 -5.24173e-18)
(-4.32891 1.08923 -2.76102e-18)
(-3.98234 1.28412 0)
(-3.66723 1.4721 0)
(-3.36572 1.63888 7.35722e-18)
(-3.09011 1.78191 -1.33982e-17)
(-2.84303 1.90247 2.50638e-17)
(-2.62395 2.00378 1.74586e-17)
(-2.43132 2.08997 1.07921e-17)
(-2.26302 2.16361 -1.03523e-17)
(-2.11563 2.22839 5.48039e-19)
(-4.18349 0.38908 -1.91805e-18)
(-4.12024 0.592435 0)
(-3.7915 0.735636 3.92416e-18)
(-3.4973 0.937632 -1.18795e-17)
(-3.25814 1.14495 1.06903e-17)