/*--------------------------------*- C++ -*----------------------------------*\
| =========                 |                                                 |
| \\      /  F ield         | OpenFOAM: The Open Source CFD Toolbox           |
|  \\    /   O peration     | Version:  4.0                                   |
|   \\  /    A nd           | Web:      www.OpenFOAM.org                      |
|    \\/     M anipulation  |                                                 |
\*---------------------------------------------------------------------------*/
FoamFile
{
    version     2.0;
    format      ascii;
    class       volScalarField;
    location    "200";
    object      epsilon;
}
// * * * * * * * * * * * * * * * * * * * * * * * * * * * * * * * * * * * * * //

dimensions      [0 2 -3 0 0 0 0];

internalField   nonuniform List<scalar> 
3072
(
6.95137
5.59584
6.83722
6.22073
6.63174
12.8133
63.4036
109.675
132.301
146.572
154.994
158.577
19.348
15.9056
16.3711
26.9566
51.7872
60.0165
79.0886
93.6869
98.1431
100.048
100.325
99.8295
30.4164
30.6905
44.12
47.4319
53.3195
62.3199
73.5812
78.3171
80.8207
82.129
82.2708
81.0352
37.9712
37.2141
45.1154
47.4126
53.0683
61.1226
67.1892
70.4504
72.4019
73.2882
73.3093
72.267
40.5373
39.0815
44.9288
46.8574
52.2084
58.3899
63.0419
66.0545
67.8794
68.7339
68.7977
67.9148
37.7397
37.1076
43.0726
46.0058
50.4314
55.8481
59.9301
62.6845
64.5038
65.4762
65.7029
65.0925
32.7892
31.9919
38.6987
43.4656
49.1076
54.2263
57.9004
60.3916
62.0488
63.0982
63.4741
63.1139
29.3824
26.7813
35.1073
43.4433
50.1523
55.1856
58.5061
60.6013
61.8126
62.4611
62.5981
62.2028
28.5699
25.6037
37.3569
48.6399
57.099
61.8847
64.1552
64.9653
65.0347
64.7254
64.0922
63.1109
30.7838
30.9652
53.6361
71.0955
80.5182
83.3825
82.528
79.6016
76.3186
73.1377
70.1989
67.4427
38.1631
58.841
102.144
125.637
130.787
127.804
119.225
109.253
99.5352
90.7671
83.2308
76.8415
182.749
166.03
180.962
185.947
181.503
169.158
154.352
138.864
124.06
110.555
98.684
88.4754
157.188
155.294
150.974
144.093
134.415
123.035
109.35
93.8459
75.9041
56.6663
39.6798
52.7645
96.856
93.5198
89.3565
85.6554
82.5745
81.5426
83.0435
88.4889
96.0286
104.011
116.994
151.164
78.4706
75.0648
71.2928
68.0305
65.9886
65.5886
67.5789
73.6478
85.4613
105.144
137.734
211.653
70.1956
67.4233
64.3351
61.4916
59.62
59.1416
60.9316
66.6581
78.495
101.193
145.975
254.727
66.1568
63.7041
60.8829
58.1707
56.21
55.5631
57.0066
62.1807
73.5084
96.6681
148.365
281.323
63.6674
61.5716
59.0854
56.6206
54.7188
53.9835
55.1678
59.8079
70.4802
93.2222
148.935
304.668
62.0032
60.2618
58.1435
55.9891
54.2378
53.4573
54.404
58.4622
68.263
89.6674
145.481
322.633
61.1663
59.6173
57.756
55.8454
54.2296
53.4612
54.2098
57.6739
66.6808
87.1509
141.973
345.39
61.7288
60.0179
58.1125
56.2109
54.5752
53.6956
54.2287
57.0839
65.2059
84.7818
139.255
370.949
64.7801
62.1927
59.6961
57.3701
55.385
54.1043
54.3015
56.4753
63.5781
82.0679
136.004
397.298
71.4283
66.8299
62.882
59.5144
56.7539
54.7661
54.3612
55.835
61.7126
78.9917
133.206
431.082
79.8507
72.7312
66.8776
62.1154
58.3425
55.5558
54.3384
55.201
59.5349
74.5743
127.998
493.501
6.91204
5.55977
6.79697
6.17983
6.56459
12.5014
62.71
109.24
132.028
146.343
154.85
158.472
19.2531
15.8217
16.1832
26.4028
51.4407
59.9142
78.7348
93.5247
98.0307
99.9458
100.242
99.7634
30.1993
30.4395
43.9169
47.3382
53.1018
62.1057
73.3918
78.1831
80.7022
82.0193
82.1762
80.9633
37.7149
36.9864
44.9577
47.2915
52.8573
60.9291
67.0405
70.3237
72.3075
73.2638
73.2786
72.1944
40.2246
38.8932
44.7881
46.7501
52.0145
58.2324
62.9048
65.9291
67.7651
68.632
68.7029
67.8293
37.5505
36.9455
42.937
45.8581
50.2636
55.7077
59.8068
62.5639
64.3851
65.3618
65.5948
64.9946
32.6534
31.869
38.5787
43.3423
48.9823
54.1134
57.7937
60.2821
61.9336
62.9829
63.3612
63.0078
29.3294
26.699
35.0161
43.3464
50.057
55.0958
58.4161
60.5027
61.7085
62.3528
62.4882
62.095
28.5616
25.5686
37.2996
48.5963
57.0656
61.8473
64.1057
64.8879
64.9418
64.6288
63.9916
63.0092
30.7981
30.9592
53.635
71.1264
80.5678
83.4201
82.5491
79.5817
76.2698
73.0733
70.1221
67.3584
38.1754
58.8347
102.143
125.682
130.87
127.889
119.291
109.293
99.5475
90.7523
83.1934
76.7881
182.397
165.836
180.816
185.9
181.492
169.202
154.407
138.916
124.096
110.57
98.6789
88.4524
157.117
155.263
150.948
144.098
134.418
123.04
109.346
93.8333
75.8876
56.6509
39.6558
52.7351
96.8088
93.4854
89.3356
85.6434
82.5674
81.5334
83.0315
88.4776
96.0201
104.006
116.974
151.118
78.4239
75.0391
71.2846
68.0346
66.0006
65.6034
67.5972
73.6671
85.48
105.155
137.747
211.64
70.1417
67.39
64.3202
61.4924
59.6326
59.1603
60.9572
66.6891
78.5307
101.232
146.007
254.752
66.0885
63.6551
60.8516
58.1548
56.2075
55.5696
57.0245
62.2079
73.5447
96.7134
148.415
281.377
63.5845
61.5049
59.0351
56.5848
54.6971
53.9732
55.171
59.8244
70.5105
93.2677
148.992
304.735
61.9079
60.1801
58.0759
55.9357
54.1981
53.4314
54.3911
58.4651
68.2829
89.706
145.547
322.714
61.065
59.5263
57.6771
55.7795
54.1777
53.4239
54.1833
57.6628
66.6877
87.1794
142.025
345.482
61.6302
59.926
58.0295
56.1384
54.5144
53.6486
54.1912
57.0613
65.202
84.7992
139.303
371.061
64.6936
62.1085
59.6172
57.2988
55.3225
54.054
54.2603
56.4471
63.5673
82.0799
136.048
397.454
71.3654
66.7633
62.816
59.4521
56.6973
54.7178
54.3251
55.8077
61.7012
79.0023
133.253
431.32
79.8147
72.687
66.8298
62.0676
58.2976
55.5166
54.3118
55.1819
59.5303
74.5929
128.058
493.906
6.92787
5.57381
6.8131
6.19853
6.60587
12.746
63.3914
109.894
132.65
146.996
155.481
159.094
19.3191
15.879
16.3021
26.776
51.7713
60.1547
79.2147
93.9335
98.4259
100.341
100.622
100.122
30.3571
30.6306
44.0848
47.4675
53.4027
62.4358
73.7526
78.5238
81.0386
82.3508
82.4918
81.2539
37.9108
37.1685
45.1913
47.5342
53.1577
61.2375
67.3442
70.6257
72.5832
73.4724
73.4948
72.4539
40.4664
39.0831
45.0024
47.114
52.2714
58.4996
63.1772
66.2044
68.0356
68.8938
68.9598
68.0793
37.7159
37.1188
43.0954
46.0113
50.4988
55.9474
60.0492
62.8144
64.6392
65.6152
65.8443
65.2362
32.7768
32.0057
38.7396
43.5224
49.183
54.32
58.0066
60.5046
62.1657
63.2174
63.5952
63.2363
29.4043
26.8018
35.1537
43.5172
50.2378
55.2823
58.6092
60.706
61.9133
62.5599
62.6971
62.3022
28.6139
25.6421
37.4169
48.7301
57.2054
61.9918
64.2571
65.0594
65.1224
64.8078
64.1718
63.1891
30.848
31.0251
53.7276
71.2174
80.649
83.5
82.6296
79.6825
76.3854
73.1945
70.25
67.4913
38.2423
58.9244
102.238
125.746
130.9
127.905
119.304
109.31
99.5741
90.7933
83.2495
76.8574
182.766
166.041
180.97
185.977
181.54
169.206
154.394
138.894
124.077
110.561
98.6837
88.472
157.709
155.819
151.486
144.573
134.848
123.411
109.662
94.0909
76.0886
56.7943
39.7544
52.8387
97.1383
93.7879
89.6092
85.892
82.7949
81.752
83.2388
88.6935
96.2478
104.245
117.243
151.469
78.6881
75.2776
71.4988
68.2284
66.1781
65.7738
67.7598
73.8335
85.6637
105.376
138.028
212.095
70.3835
67.61
64.5184
61.6708
59.794
59.313
61.101
66.8325
78.6856
101.421
146.285
255.273
66.3227
63.8698
61.0463
58.3305
56.3657
55.7171
57.1619
62.3421
73.6862
96.8832
148.671
281.921
63.8124
61.7164
59.2284
56.7601
54.8552
54.119
55.3067
59.9556
70.6454
93.4245
149.231
305.293
62.1266
60.3848
58.265
56.1079
54.3544
53.5743
54.5251
58.5939
68.4134
89.8543
145.76
323.276
61.2663
59.7168
57.8549
55.9437
54.3281
53.562
54.3133
57.7874
66.8132
87.3199
142.231
346.048
61.8062
60.0939
58.1873
56.2854
54.6505
53.7741
54.308
57.176
65.3176
84.9304
139.494
371.616
64.8277
62.2401
59.7441
57.4192
55.4361
54.1602
54.3632
56.546
63.6671
82.1932
136.22
397.981
71.4446
66.8483
62.9035
59.5396
56.7826
54.7995
54.4062
55.8847
61.7787
79.0927
133.398
431.787
79.8477
72.7308
66.8811
62.1236
58.3554
55.5735
54.3656
55.2336
59.5813
74.6512
128.16
494.29
6.91808
5.56571
6.80519
6.18813
6.57594
12.5314
62.7539
109.205
131.941
146.22
154.697
158.301
19.275
15.8413
16.2151
26.494
51.4975
59.9006
78.728
93.4681
97.956
99.8642
100.155
99.6754
30.2386
30.4834
43.9623
47.3659
53.1182
62.0998
73.3676
78.141
80.6511
81.9623
82.1131
80.8954
37.7526
37.0272
44.9913
47.3147
52.869
60.9205
67.015
70.2892
72.2399
73.1286
73.1591
72.1309
40.2591
38.9286
44.8158
46.773
52.0165
58.2195
62.8831
65.9003
67.7242
68.5804
68.6493
67.7781
37.5656
36.9755
42.9573
45.8715
50.2642
55.6969
59.7887
62.5407
64.3562
65.3281
65.5582
64.9553
32.6618
31.8895
38.5979
43.3514
48.9821
54.1059
57.7806
60.2653
61.9134
62.9599
63.3358
62.98
29.3278
26.7103
35.0299
43.3551
50.0573
55.0899
58.4057
60.4896
61.6952
62.3383
62.4721
62.0774
28.5587
25.5763
37.314
48.6083
57.0711
61.8467
64.1007
64.8806
64.9331
64.6191
63.981
62.9978
30.8
30.975
53.6702
71.1655
80.5986
83.4403
82.561
79.5873
76.2714
73.0722
70.1192
67.3543
38.1974
58.8993
102.255
125.796
130.963
127.965
119.346
109.33
99.5717
90.7679
83.2034
76.7942
182.715
166.064
181.024
186.074
181.647
169.323
154.502
138.986
124.148
110.608
98.7063
88.4724
156.939
155.078
150.771
143.932
134.272
122.916
109.247
93.7635
75.8428
56.6265
39.6548
52.7434
96.7229
93.4039
89.2591
85.573
82.5047
81.4773
82.9891
88.4353
95.9756
103.957
116.932
151.085
78.3527
74.9658
71.2108
67.9621
65.931
65.5359
67.5334
73.6049
85.4179
105.093
137.671
211.547
70.0772
67.3225
64.2505
61.4215
59.5616
59.0897
60.8873
66.6181
78.4567
101.151
145.915
254.606
66.0341
63.5971
60.7909
58.0924
56.1439
55.5049
56.9571
62.1376
73.4691
96.6281
148.309
281.19
63.5417
61.4586
58.986
56.5338
54.6443
53.9181
55.1117
59.7593
70.4371
93.1811
148.88
304.522
61.8771
60.1462
58.0392
55.8966
54.1565
53.3862
54.3416
58.4079
68.2151
89.6217
145.43
322.479
61.0448
59.5033
57.6512
55.7507
54.1454
53.3871
54.143
57.6151
66.6284
87.1015
141.911
345.22
61.6172
59.911
58.0125
56.1191
54.4923
53.6222
54.1613
57.0238
65.1523
84.7298
139.194
370.774
64.6881
62.1013
59.6081
57.2877
55.3092
54.0366
54.239
56.4188
63.5269
82.0193
135.944
397.133
71.3687
66.7643
62.8148
59.4487
56.6918
54.709
54.3099
55.7876
61.6697
78.951
133.156
430.961
79.8294
72.6976
66.8371
62.072
58.2994
55.515
54.3028
55.1686
59.5068
74.5507
127.974
493.479
179.212
179.754
177.752
173.919
169.166
162.641
153.176
141.479
129.442
117.501
105.817
94.8537
101.646
105.709
109.232
112.644
115.7
118.093
117.935
116.008
112.599
107.442
99.7143
91.2783
66.6947
68.5816
70.6508
73.0366
75.7915
78.8295
81.5224
83.5843
84.2145
83.7123
81.798
78.9446
47.6434
48.7258
50.003
51.5236
53.4062
55.7355
58.355
60.9549
63.1995
64.4794
64.4422
63.3922
84.9827
76.5388
69.5027
63.7856
59.2838
56.0099
54.2261
54.5949
57.1348
66.2648
93.3392
184.065
82.9611
75.3011
68.6609
63.1503
58.8096
55.711
53.8093
53.727
54.7882
58.745
69.9827
96.2647
74.6254
69.2111
64.1871
59.8464
56.4382
53.8701
52.057
50.8932
50.6791
51.5267
55.4073
64.0351
61.6992
59.4588
56.6664
53.6061
50.6992
47.8757
45.3307
43.151
42.0148
41.7411
43.1559
46.2424
179.147
179.652
177.637
173.814
169.088
162.6
153.186
141.498
129.46
117.512
105.82
94.8457
101.601
105.64
109.138
112.537
115.595
118.002
117.871
115.963
112.563
107.419
99.7036
91.2634
66.6647
68.5352
70.585
72.9534
75.698
78.7328
81.4283
83.4983
84.1446
83.652
81.7456
78.9021
47.6081
48.6814
49.9468
51.4554
53.3272
55.6487
58.2647
60.8665
63.1164
64.4116
64.3834
63.3435
84.964
76.5119
69.4708
63.7524
59.252
55.9828
54.2122
54.5887
57.1425
66.2945
93.4034
184.204
82.9423
75.2779
68.6358
63.1265
58.7898
55.699
53.8095
53.7374
54.8122
58.7877
70.0534
96.3771
74.5954
69.1833
64.1641
59.8302
56.4312
53.8755
52.0754
50.9253
50.7221
51.5835
55.4869
64.1395
61.6587
59.4302
56.6538
53.6074
50.7142
47.9051
45.3735
43.2064
42.0822
41.8178
43.2476
46.3492
179.283
179.796
177.784
173.954
169.207
162.688
153.224
141.517
129.469
117.516
105.821
94.8513
101.731
105.792
109.311
112.724
115.782
118.177
118.011
116.075
112.658
107.485
99.7351
91.2905
66.7869
68.6761
70.7438
73.1283
75.8834
78.9211
81.6083
83.6633
84.2801
83.7681
81.8445
78.9787
47.7265
48.8108
50.087
51.6053
53.4858
55.8126
58.427
61.0198
63.2559
64.5239
64.4801
63.4242
84.9776
76.5341
69.5004
63.7873
59.2901
56.0209
54.2449
54.6179
57.1671
66.3168
93.4342
184.277
82.9663
75.3042
68.6637
63.1551
58.8175
55.7227
53.8261
53.7469
54.8131
58.7801
70.0387
96.3606
74.6437
69.2262
64.2
59.8598
56.4531
53.8869
52.0756
50.9131
50.7003
51.5516
55.4425
64.0866
61.7285
59.4847
56.6879
53.627
50.7196
47.8953
45.3493
43.1692
42.0336
41.7622
43.1828
46.278
179.343
179.836
177.81
173.977
169.236
162.73
153.29
141.584
129.532
117.57
105.866
94.8818
101.708
105.755
109.257
112.66
115.718
118.119
117.979
116.061
112.653
107.496
99.7625
91.3129
66.7275
68.607
70.6648
73.0409
75.7919
78.8292
81.5266
83.5947
84.2328
83.7346
81.8217
78.9688
47.6517
48.7325
50.005
51.5203
53.3987
55.7253
58.3449
60.9472
63.1955
64.4832
64.4499
63.4031
84.9925
76.5345
69.4883
63.7654
59.2609
55.987
54.2088
54.5815
57.1272
66.2645
93.3496
184.074
82.9827
75.3115
68.663
63.1479
58.8055
55.7083
53.8117
53.7353
54.8032
58.7673
70.0149
96.3026
74.6484
69.2284
64.2003
59.8579
56.451
53.8872
52.0799
50.922
50.7115
51.5627
55.4498
64.0803
61.712
59.4747
56.6866
53.6304
50.7277
47.9079
45.3649
43.1856
42.0491
41.7752
43.1929
46.2849
37.4211
38.7018
40.2653
42.1103
44.2948
46.7778
49.1478
50.8862
51.9428
52.085
51.4876
50.7073
30.6283
32.2743
34.1464
36.2128
38.445
40.6612
42.2728
43.2393
43.6412
43.6747
43.5157
43.2547
26.3532
28.2636
30.3043
32.4063
34.4779
36.147
37.1998
37.8295
38.2644
38.7154
39.1108
38.9009
23.5776
25.6222
27.7051
29.7155
31.4745
32.6319
33.37
34.0176
34.9103
36.4698
37.959
38.4366
49.6335
46.0861
42.2098
38.7205
35.4256
32.914
31.4674
31.0882
31.7747
33.0512
34.9094
36.41
41.8649
35.0821
29.7657
26.1833
23.6643
22.3802
22.2402
23.007
24.4428
26.159
27.9275
29.3358
36.8221
26.569
20.9306
18.0534
16.613
16.3373
16.912
18.1448
19.7687
21.5121
23.2093
24.7311
35.8665
20.2608
15.01
13.049
12.505
12.7943
13.7313
15.1047
16.719
18.4067
20.0838
21.7414
37.3813
38.6518
40.2075
42.0461
44.2258
46.7081
49.0832
50.8273
51.8935
52.0436
51.4618
50.697
30.5917
32.2292
34.0969
36.1597
38.3897
40.6136
42.2318
43.2109
43.6497
43.6594
43.5257
43.2815
26.3235
28.2284
30.2665
32.3665
34.4381
36.1175
37.1794
37.8181
38.2686
38.7307
39.1455
38.9556
23.5574
25.599
27.6804
29.6879
31.4508
32.6172
33.3653
34.022
34.9298
36.5052
38.0203
38.5123
49.6396
46.1049
42.2432
38.7672
35.4837
32.9822
31.5423
31.1685
31.8597
33.1405
35.0075
36.5153
41.9077
35.1292
29.8209
26.2462
23.7328
22.4526
22.3144
23.083
24.521
26.2402
28.0134
29.4254
36.8936
26.6291
20.9903
18.1146
16.6754
16.4003
16.975
18.208
19.833
21.5781
23.2781
24.8017
35.969
20.3234
15.0642
13.1015
12.5568
12.8459
13.7824
15.1553
16.7695
18.4578
20.1357
21.794
37.4922
38.7678
40.3278
42.169
44.3498
46.8289
49.1897
50.919
51.9745
52.1112
51.5126
50.732
30.6838
32.323
34.1912
36.2536
38.4827
40.6923
42.2958
43.2659
43.6942
43.6925
43.5371
43.2743
26.3949
28.2996
30.3368
32.4351
34.5031
36.1673
37.216
37.8469
38.2854
38.733
39.1286
38.9149
23.6095
25.65
27.7301
29.7376
31.4927
32.6469
33.3829
34.0306
34.9235
36.4809
37.97
38.4493
49.6581
46.1104
42.2319
38.7408
35.4442
32.9311
31.4838
31.1052
31.7934
33.0728
34.9369
36.4433
41.8819
35.1019
29.7841
26.1997
23.6789
22.3937
22.2537
23.0215
24.4592
26.178
27.9506
29.3626
36.835
26.5844
20.9449
18.0658
16.6239
16.3476
16.9223
18.1561
19.7816
21.5271
23.2267
24.7506
35.8839
20.2732
15.0206
13.0582
12.513
12.8018
13.7389
15.1131
16.7285
18.4174
20.0957
21.7542
37.4199
38.6951
40.2557
42.0989
44.2826
46.7669
49.1397
50.8807
51.9443
52.0892
51.4978
50.7232
30.6217
32.2624
34.1333
36.1993
38.4324
40.6528
42.2663
43.2424
43.6761
43.6794
43.5314
43.2754
26.3448
28.2515
30.2915
32.3938
34.467
36.1411
37.1973
37.8322
38.2753
38.7275
39.128
38.9213
23.5707
25.613
27.6955
29.7051
31.4669
32.6286
33.3712
34.0234
34.9225
36.4866
37.9767
38.4536
49.656
46.1129
42.2393
38.7507
35.4544
32.9411
31.4913
31.11
31.7954
33.0712
34.9325
36.4398
41.8907
35.1071
29.7882
26.2029
23.6807
22.394
22.2507
23.0156
24.4501
26.1653
27.9342
29.35
36.8432
26.5861
20.9435
18.0629
16.6194
16.3415
16.9133
18.1436
19.7654
21.5069
23.2026
24.7263
35.8767
20.2685
15.0146
13.0517
12.5054
12.7927
13.7268
15.097
16.7078
18.3918
20.0643
21.7208
21.6429
23.7491
25.8282
27.7414
29.1821
30.0223
30.5745
31.1492
32.1651
33.8363
36.3527
41.0183
20.1584
22.302
24.3867
26.25
27.4704
28.0352
28.1832
28.0807
27.6996
25.922
16.6888
5.06241
18.8925
21.0699
23.1873
25.0072
26.0025
26.3075
25.8185
24.4389
21.6152
15.6016
5.65043
2.90264
17.7026
19.9049
22.0697
23.8279
24.6772
24.753
23.5126
20.788
16.0503
8.83646
3.57783
2.87005
16.5039
18.7034
20.8879
22.5901
23.3698
23.2291
21.4074
17.7647
12.3234
6.24024
3.26225
2.99068
15.258
17.4121
19.5713
21.2368
22.006
21.7235
19.5858
15.578
10.3025
5.57571
3.32026
3.02843
13.972
16.0319
18.1134
19.7443
20.5331
20.214
18.0413
14.1122
9.3756
5.55805
3.6257
3.03205
12.6975
14.6211
16.5747
18.1603
18.9864
18.7193
16.7378
13.1587
9.04209
5.82245
4.00477
2.85171
11.5462
13.313
15.1047
16.6311
17.5124
17.3382
15.7082
12.593
9.0491
6.21831
4.39046
2.441
10.7556
12.3929
14.0312
15.5002
16.4826
16.4281
15.1514
12.516
9.41796
6.76674
4.74266
1.86976
11.1267
12.7993
14.4215
15.9669
17.1895
17.2783
16.0798
13.7679
10.8682
7.91958
5.11425
1.17453
19.5819
22.5948
25.3227
28.3116
31.2998
31.7782
29.7666
25.8916
20.1014
12.8021
6.38904
1.67243
49.0839
15.4343
11.0881
9.9934
9.96513
10.5937
11.6772
13.059
14.6115
16.2432
17.9259
19.6876
24.9515
10.7359
8.41646
7.99233
8.30069
9.09699
10.2178
11.5556
13.036
14.6193
16.3093
18.1385
16.411
7.85187
6.63685
6.60044
7.11244
7.97626
9.07872
10.3503
11.7558
13.2902
14.9748
16.8385
11.7311
6.01881
5.37934
5.57616
6.18945
7.06326
8.11821
9.31264
10.6392
12.1157
13.7743
15.6404
8.693
4.74783
4.42894
4.76694
5.42186
6.27266
7.26464
8.3757
9.61742
11.0227
12.6304
14.4646
6.49632
3.78002
3.67002
4.0913
4.75407
5.56276
6.48392
7.50866
8.66033
9.9805
11.5123
13.2796
4.78765
3.00054
3.03832
3.50897
4.15985
4.91531
5.76313
6.7025
7.76241
8.98784
10.4233
12.0924
3.49624
2.37078
2.49996
3.00203
3.62979
4.3258
5.10277
5.96348
6.93691
8.06654
9.39554
10.946
2.46988
1.83657
2.0375
2.56845
3.16791
3.80198
4.51714
5.31541
6.21928
7.26727
8.4974
9.9296
1.62719
1.37191
1.65997
2.23859
2.81063
3.38159
4.06305
4.84272
5.7204
6.72222
7.8862
9.23459
0.956479
0.998372
1.4676
2.12576
2.68076
3.20924
3.91501
4.76578
5.73258
6.83333
8.08944
9.52319
0.698311
1.20388
2.46511
3.34344
3.91756
4.56137
5.70733
7.31477
9.1839
11.3243
13.788
16.5868
21.6324
23.7377
25.8158
27.7269
29.1728
30.0213
30.5842
31.1665
32.1971
33.8827
36.4216
41.1093
20.1574
22.3018
24.3864
26.2495
27.4757
28.0449
28.1992
28.105
27.7336
25.9625
16.7163
5.07021
18.8992
21.0787
23.1966
25.0188
26.0174
26.3243
25.839
24.4633
21.6411
15.6213
5.65698
2.90582
17.7152
19.9209
22.0873
23.8479
24.6986
24.7747
23.5347
20.8093
16.0672
8.84496
3.58169
2.87321
16.5197
18.7235
20.9105
22.6149
23.3951
23.2534
21.4295
17.7831
12.3355
6.24644
3.26594
2.99404
15.2749
17.4337
19.596
21.2635
22.033
21.7488
19.6075
15.5945
10.3129
5.58201
3.32426
3.03185
13.9878
16.0526
18.1373
19.7704
20.5597
20.2387
18.0621
14.1277
9.38583
5.56478
3.6301
3.03545
12.711
14.6393
16.596
18.184
19.0111
18.7424
16.7575
13.1736
9.0525
5.82974
4.00957
2.8549
11.5567
13.328
15.1224
16.6515
17.5342
17.359
15.7266
12.6072
9.05973
6.22607
4.39553
2.44358
10.7632
12.4046
14.0455
15.5175
16.5018
16.4468
15.1685
12.5301
9.42891
6.77492
4.74783
1.87164
11.1313
12.8091
14.4339
15.9831
17.2081
17.2972
16.0974
13.7831
10.8806
7.92858
5.11933
1.17558
19.5822
22.6083
25.342
28.3404
31.3339
31.813
29.7987
25.9193
20.1225
12.8151
6.39481
1.67371
49.2662
15.4912
11.1329
10.0359
10.0073
10.6356
11.7185
13.0992
14.6506
16.2814
17.9637
19.7246
25.0515
10.7789
8.45173
8.02651
8.33525
9.13162
10.2517
11.5878
13.0662
14.6474
16.3354
18.1628
16.478
7.88397
6.66461
6.62829
7.14131
8.00549
9.10706
10.3765
11.7792
13.3104
14.9919
16.8525
11.7789
6.04328
5.40148
5.59932
6.21413
7.08853
8.14254
9.33454
10.6576
12.1301
13.7845
15.6466
8.7281
4.76689
4.4469
4.78655
5.4434
6.295
7.28603
8.39444
9.63224
11.0329
12.6358
14.465
6.52228
3.79504
3.68478
4.10817
4.77318
5.58288
6.50314
7.52514
8.67266
9.98792
11.5144
13.2763
4.80666
3.01244
3.05052
3.52359
4.17701
4.93369
5.78071
6.71736
7.77306
8.99348
10.4235
12.0868
3.51024
2.38028
2.51003
3.01476
3.64535
4.34283
5.11913
5.9772
6.94649
8.0712
9.39464
10.9394
2.47973
1.84399
2.04575
2.5796
3.18222
3.81804
4.53267
5.32848
6.22829
7.27151
8.49616
9.92263
1.63364
1.37747
1.66676
2.24865
2.8244
3.39749
4.07855
4.85591
5.72946
6.72649
7.88501
9.22756
0.960218
1.00235
1.4737
2.13583
2.69523
3.22628
3.93174
4.7805
5.7432
6.83864
8.08862
9.51567
0.700903
1.20822
2.47662
3.36196
3.9428
4.5906
5.73554
7.34135
9.20531
11.3365
13.7887
16.5747
21.6682
23.7719
25.8489
27.7597
29.1969
30.0345
30.5839
31.157
32.1688
33.8345
36.3506
41.0357
20.1794
22.3217
24.4047
26.2656
27.4824
28.0449
28.1897
28.0817
27.6924
25.9065
16.681
5.06606
18.9103
21.087
23.2032
25.02
26.0122
26.3147
25.821
24.4352
21.6051
15.592
5.65159
2.90487
17.7174
19.9193
22.0826
23.8372
24.6841
24.757
23.5122
20.783
16.0434
8.83564
3.57964
2.87224
16.5154
18.7146
20.8971
22.5956
23.3732
23.2292
21.4047
17.76
12.3203
6.24218
3.26374
2.99272
15.2662
17.4196
19.5763
21.2382
22.0054
21.7199
19.581
15.5738
10.3014
5.57728
3.32107
3.03037
13.9765
16.0355
18.1143
19.7417
20.5284
20.2071
18.0345
14.1078
9.37444
5.55886
3.6259
3.03384
12.6987
14.6212
16.5719
18.1542
18.9783
18.7099
16.7293
13.1536
9.0397
5.82209
4.00436
2.85299
11.5441
13.3101
15.0986
16.6227
17.5014
17.3275
15.6977
12.5872
9.04532
6.21702
4.38944
2.44196
10.7507
12.387
14.0227
15.4899
16.4703
16.416
15.14
12.5088
9.41344
6.76444
4.74134
1.8703
11.1179
12.7904
14.4105
15.9552
17.176
17.2651
16.0673
13.7593
10.8624
7.91663
5.11282
1.17471
19.56
22.5757
25.3024
28.2926
31.2786
31.7545
29.746
25.8748
20.0913
12.7987
6.38766
1.672
49.1332
15.4457
11.0962
10.0001
9.97104
10.5992
11.6828
13.065
14.618
16.2501
17.9331
19.6946
24.9756
10.7449
8.42269
7.99749
8.30513
9.10106
10.2219
11.5597
13.0401
14.6232
16.3127
18.141
16.4269
7.85884
6.64178
6.60449
7.11588
7.97933
9.08158
10.353
11.7581
13.2918
14.9753
16.8375
11.7418
6.02423
5.38338
5.57941
6.19219
7.06562
8.12026
9.31427
10.6401
12.1156
13.7727
15.6369
8.70085
4.75212
4.43226
4.76963
5.42412
6.27453
7.26611
8.3766
9.61747
11.0215
12.6274
14.4594
6.50177
3.78341
3.67274
4.09357
4.75598
5.56429
6.48499
7.50907
8.65978
9.97856
11.5085
13.2735
4.7914
3.00323
3.04052
3.51089
4.1615
4.91658
5.76391
6.70258
7.76149
8.98549
10.4191
12.0858
3.49889
2.37293
2.5017
3.00365
3.63123
4.32686
5.10332
5.96332
6.93575
8.06397
9.39103
10.9392
2.47165
1.83814
2.03882
2.5698
3.16918
3.80285
4.51747
5.31506
6.21793
7.26455
8.49275
9.92259
1.62812
1.37291
1.6609
2.2397
2.81177
3.38227
4.06312
4.84212
5.71887
6.7193
7.88131
9.22725
0.956832
0.998804
1.46823
2.12678
2.68188
3.20978
3.91475
4.76481
5.73059
6.82982
8.08366
9.51456
0.698612
1.20408
2.46656
3.34571
3.91954
4.56207
5.70596
7.31225
9.17979
11.3172
13.7765
16.5694
21.6391
23.7442
25.8226
27.7349
29.1784
30.0228
30.5801
31.1587
32.1801
33.8539
36.3695
41.0351
20.1588
22.3021
24.3863
26.2489
27.472
28.0391
28.1904
28.0917
27.7134
25.9353
16.6948
5.06007
18.8965
21.0744
23.1912
25.0113
26.0078
26.3136
25.8265
24.4482
21.6236
15.6053
5.64823
2.89886
17.7096
19.9131
22.0777
23.8356
24.6849
24.7603
23.5197
20.7938
16.0526
8.83418
3.5746
2.866
16.5121
18.7134
20.8979
22.5995
23.3785
23.2363
21.4127
17.7672
12.3221
6.23674
3.25908
2.98668
15.2662
17.4222
19.5816
21.2461
22.0144
21.7296
19.5891
15.5781
10.2995
5.57226
3.31735
3.02452
13.9784
16.0403
18.122
19.752
20.5398
20.2181
18.0425
14.1105
9.37207
5.55469
3.62286
3.02823
12.7014
14.6267
16.5804
18.1652
18.9905
18.7209
16.737
13.1556
9.03821
5.81912
4.00186
2.84834
11.5469
13.3153
15.1066
16.6325
17.5133
17.3369
15.7054
12.5886
9.04481
6.2148
4.38734
2.43824
10.7531
12.3914
14.0292
15.4981
16.4801
16.424
15.1463
12.5104
9.41302
6.76278
4.73919
1.86774
11.1196
12.7939
14.4153
15.9614
17.1836
17.2711
16.0721
13.7604
10.8619
7.91436
5.1101
1.17332
19.5587
22.5778
25.3051
28.2981
31.2849
31.7604
29.7481
25.8746
20.0868
12.7913
6.38323
1.67087
49.0835
15.4348
11.0876
9.99186
9.96245
10.589
11.6695
13.0472
14.5948
16.2207
17.8962
19.6538
24.9412
10.7329
8.4136
7.98914
8.29664
9.091
10.2086
11.5416
13.0159
14.5917
16.2718
18.0944
16.4016
7.84803
6.63342
6.59691
7.1082
7.97018
9.06925
10.3357
11.7342
13.2596
14.9324
16.787
11.7238
6.01527
5.37618
5.573
6.18572
7.05786
8.1095
9.29858
10.6175
12.0843
13.7297
15.5849
8.68768
4.74491
4.42635
4.76447
5.41904
6.26843
7.25731
8.36308
9.59709
10.9922
12.5863
14.4083
6.49252
3.77771
3.66805
4.08961
4.75229
5.55993
6.47836
7.49809
8.64226
9.95258
11.4709
13.2256
4.78506
2.99874
3.0369
3.508
4.15908
4.91391
5.75947
6.69431
7.7472
8.9634
10.3862
12.043
3.49437
2.36937
2.49898
3.00164
3.62988
4.32571
5.101
5.95778
6.92482
8.04614
9.36365
10.9028
2.46854
1.83552
2.03683
2.56846
3.16862
3.80297
4.5171
5.31218
6.21031
7.25096
8.47105
9.8934
1.62635
1.37118
1.65951
2.23876
2.81163
3.38329
4.06466
4.842
5.71433
6.70947
7.86505
9.20492
0.95601
0.997929
1.46722
2.12589
2.68171
3.21119
3.91792
4.76733
5.72925
6.82324
8.07206
9.50356
0.698036
1.20345
2.46432
3.34275
3.91753
4.56236
5.7122
7.31988
9.18277
11.3114
13.7669
16.5738
)
;

boundaryField
{
    rotor
    {
        Cmu             0.09;
        kappa           0.41;
        E               9.8;
        type            epsilonWallFunction;
        value           nonuniform List<scalar> 
192
(
6.95137
5.59584
6.83722
6.22073
6.63174
12.8133
63.4036
109.675
132.301
146.572
154.994
158.577
157.188
155.294
150.974
144.093
134.415
123.035
109.35
93.8459
75.9041
56.6663
39.6798
52.7645
6.91204
5.55977
6.79697
6.17983
6.56459
12.5014
62.71
109.24
132.028
146.343
154.85
158.472
157.117
155.263
150.948
144.098
134.418
123.04
109.346
93.8333
75.8876
56.6509
39.6558
52.7351
6.92787
5.57381
6.8131
6.19853
6.60587
12.746
63.3914
109.894
132.65
146.996
155.481
159.094
157.709
155.819
151.486
144.573
134.848
123.411
109.662
94.0909
76.0886
56.7943
39.7544
52.8387
6.91808
5.56571
6.80519
6.18813
6.57594
12.5314
62.7539
109.205
131.941
146.22
154.697
158.301
156.939
155.078
150.771
143.932
134.272
122.916
109.247
93.7635
75.8428
56.6265
39.6548
52.7434
6.95137
19.348
30.4164
37.9712
40.5373
37.7397
32.7892
29.3824
28.5699
30.7838
38.1631
182.749
52.7434
151.085
211.547
254.606
281.19
304.522
322.479
345.22
370.774
397.133
430.961
493.479
6.91204
19.2531
30.1993
37.7149
40.2246
37.5505
32.6534
29.3294
28.5616
30.7981
38.1754
182.397
52.7645
151.164
211.653
254.727
281.323
304.668
322.633
345.39
370.949
397.298
431.082
493.501
6.92787
19.3191
30.3571
37.9108
40.4664
37.7159
32.7768
29.4043
28.6139
30.848
38.2423
182.766
52.7351
151.118
211.64
254.752
281.377
304.735
322.714
345.482
371.061
397.454
431.32
493.906
6.91808
19.275
30.2386
37.7526
40.2591
37.5656
32.6618
29.3278
28.5587
30.8
38.1974
182.715
52.8387
151.469
212.095
255.273
281.921
305.293
323.276
346.048
371.616
397.981
431.787
494.29
)
;
    }
    stator
    {
        Cmu             0.09;
        kappa           0.41;
        E               9.8;
        type            epsilonWallFunction;
        value           nonuniform List<scalar> 
192
(
19.5819
22.5948
25.3227
28.3116
31.2998
31.7782
29.7666
25.8916
20.1014
12.8021
6.38904
1.67243
0.698311
1.20388
2.46511
3.34344
3.91756
4.56137
5.70733
7.31477
9.1839
11.3243
13.788
16.5868
19.5822
22.6083
25.342
28.3404
31.3339
31.813
29.7987
25.9193
20.1225
12.8151
6.39481
1.67371
0.700903
1.20822
2.47662
3.36196
3.9428
4.5906
5.73554
7.34135
9.20531
11.3365
13.7887
16.5747
19.56
22.5757
25.3024
28.2926
31.2786
31.7545
29.746
25.8748
20.0913
12.7987
6.38766
1.672
0.698612
1.20408
2.46656
3.34571
3.91954
4.56207
5.70596
7.31225
9.17979
11.3172
13.7765
16.5694
19.5587
22.5778
25.3051
28.2981
31.2849
31.7604
29.7481
25.8746
20.0868
12.7913
6.38323
1.67087
0.698036
1.20345
2.46432
3.34275
3.91753
4.56236
5.7122
7.31988
9.18277
11.3114
13.7669
16.5738
49.0839
24.9515
16.411
11.7311
8.693
6.49632
4.78765
3.49624
2.46988
1.62719
0.956479
0.698311
41.0183
5.06241
2.90264
2.87005
2.99068
3.02843
3.03205
2.85171
2.441
1.86976
1.17453
1.67243
49.2662
25.0515
16.478
11.7789
8.7281
6.52228
4.80666
3.51024
2.47973
1.63364
0.960218
0.700903
41.1093
5.07021
2.90582
2.87321
2.99404
3.03185
3.03545
2.8549
2.44358
1.87164
1.17558
1.67371
49.1332
24.9756
16.4269
11.7418
8.70085
6.50177
4.7914
3.49889
2.47165
1.62812
0.956832
0.698612
41.0357
5.06606
2.90487
2.87224
2.99272
3.03037
3.03384
2.85299
2.44196
1.8703
1.17471
1.672
49.0835
24.9412
16.4016
11.7238
8.68768
6.49252
4.78506
3.49437
2.46854
1.62635
0.95601
0.698036
41.0351
5.06007
2.89886
2.866
2.98668
3.02452
3.02823
2.84834
2.43824
1.86774
1.17332
1.67087
)
;
    }
    front
    {
        type            empty;
    }
    back
    {
        type            empty;
    }
}


// ************************************************************************* //
