/*--------------------------------*- C++ -*----------------------------------*\
| =========                 |                                                 |
| \\      /  F ield         | OpenFOAM: The Open Source CFD Toolbox           |
|  \\    /   O peration     | Version:  4.0                                   |
|   \\  /    A nd           | Web:      www.OpenFOAM.org                      |
|    \\/     M anipulation  |                                                 |
\*---------------------------------------------------------------------------*/
FoamFile
{
    version     2.0;
    format      ascii;
    class       volScalarField;
    location    "200";
    object      k;
}
// * * * * * * * * * * * * * * * * * * * * * * * * * * * * * * * * * * * * * //

dimensions      [0 2 -2 0 0 0 0];

internalField   nonuniform List<scalar> 
3072
(
0.0522166
0.0676085
0.0772398
0.0724917
0.0755105
0.116321
0.339523
0.490949
0.556895
0.596457
0.619325
0.628947
0.111201
0.173987
0.187686
0.188356
0.301197
0.358533
0.495303
0.64876
0.786757
0.917498
1.03497
1.12612
0.160742
0.328628
0.386251
0.377491
0.438864
0.569695
0.752323
0.928368
1.08599
1.21868
1.32211
1.3888
0.198227
0.402568
0.454765
0.473382
0.58407
0.755159
0.937757
1.10354
1.24759
1.36477
1.4516
1.50466
0.219009
0.462485
0.528636
0.571115
0.702974
0.87714
1.05061
1.20339
1.33332
1.4381
1.51603
1.5645
0.220044
0.479295
0.571648
0.646076
0.781125
0.947445
1.10703
1.24665
1.36587
1.46236
1.53468
1.58181
0.210277
0.467592
0.578809
0.684153
0.825599
0.98256
1.12887
1.25718
1.36753
1.4569
1.52484
1.57059
0.204368
0.452024
0.593647
0.730391
0.881588
1.02785
1.15765
1.26987
1.36593
1.44256
1.50184
1.54381
0.208972
0.464845
0.662514
0.850296
1.01436
1.14239
1.24274
1.32443
1.39337
1.45054
1.49353
1.52327
0.228131
0.545337
0.878923
1.13761
1.30451
1.3965
1.44621
1.47401
1.49327
1.50954
1.52256
1.53056
0.272817
0.747185
1.28214
1.5895
1.72442
1.76361
1.758
1.72396
1.68324
1.64247
1.60627
1.5746
0.801402
1.22353
1.74677
1.99966
2.07979
2.07562
2.03156
1.95927
1.87736
1.79427
1.71597
1.64525
0.625365
0.620414
0.608844
0.590291
0.563546
0.531269
0.491068
0.443387
0.384817
0.316687
0.249735
0.200979
1.18456
1.20644
1.19957
1.1576
1.10606
1.051
0.992915
0.928467
0.84704
0.693995
0.51049
0.438002
1.41286
1.41151
1.38199
1.33497
1.28128
1.2278
1.17693
1.12547
1.0632
0.959164
0.725985
0.586579
1.52291
1.52027
1.49504
1.4548
1.40746
1.36055
1.31881
1.28213
1.2427
1.1743
0.983205
0.7055
1.58267
1.58067
1.55883
1.52384
1.48286
1.44371
1.4127
1.39159
1.37405
1.33581
1.1907
0.797186
1.60299
1.60403
1.58718
1.5587
1.52606
1.49736
1.48016
1.47594
1.48105
1.47475
1.38745
0.885268
1.59446
1.59945
1.58899
1.56768
1.54255
1.52265
1.51652
1.52947
1.56025
1.58416
1.55118
0.964905
1.56808
1.57611
1.57081
1.55619
1.5381
1.52644
1.52894
1.55324
1.60962
1.66925
1.67625
1.05612
1.54034
1.54584
1.54143
1.52989
1.51563
1.5096
1.51833
1.55369
1.6298
1.73167
1.77247
1.15498
1.53023
1.52432
1.51253
1.49691
1.48196
1.47693
1.48707
1.52772
1.62197
1.76454
1.87128
1.25774
1.54615
1.51917
1.4924
1.46693
1.4453
1.43577
1.44365
1.4824
1.58232
1.77097
1.98498
1.37839
1.58232
1.52826
1.48186
1.44242
1.41084
1.39357
1.39789
1.42963
1.52027
1.7308
2.08639
1.56247
0.052046
0.0673349
0.0769371
0.0721695
0.0749962
0.114466
0.337065
0.489663
0.556141
0.595842
0.618943
0.628672
0.110837
0.173552
0.186864
0.186197
0.298724
0.357328
0.492941
0.646876
0.784709
0.915644
1.03336
1.12481
0.159975
0.327103
0.385297
0.376628
0.436277
0.5669
0.749105
0.925455
1.08319
1.21614
1.31991
1.3872
0.197343
0.401048
0.453105
0.471381
0.580807
0.751817
0.934376
1.10038
1.24464
1.36209
1.44925
1.50284
0.217889
0.460734
0.526778
0.568438
0.699626
0.87377
1.0473
1.20028
1.33036
1.43543
1.51366
1.5626
0.219293
0.477757
0.569647
0.6433
0.777981
0.944293
1.10398
1.24359
1.36272
1.45962
1.53223
1.57974
0.209679
0.466289
0.576967
0.681771
0.822861
0.979793
1.12613
1.2544
1.36461
1.45424
1.52238
1.56841
0.204114
0.451278
0.592196
0.728584
0.879562
1.0257
1.15542
1.26752
1.36348
1.44014
1.49947
1.54159
0.208929
0.464493
0.661854
0.849532
1.0135
1.14129
1.24136
1.32279
1.39146
1.44845
1.49141
1.52119
0.228202
0.545546
0.879232
1.13804
1.30495
1.39664
1.44593
1.4733
1.49221
1.508
1.52081
1.52874
0.272883
0.747362
1.28214
1.58965
1.72486
1.76392
1.75815
1.72378
1.68271
1.64158
1.60506
1.5732
0.800421
1.22237
1.74567
1.99884
2.07954
2.07545
2.03151
1.95913
1.87704
1.79371
1.71516
1.64422
0.625164
0.620287
0.608772
0.590292
0.563543
0.531268
0.491042
0.443339
0.384761
0.316619
0.249608
0.200955
1.18364
1.20594
1.19932
1.15753
1.10613
1.05112
0.993066
0.928609
0.847166
0.694074
0.510475
0.437914
1.41182
1.41088
1.38172
1.33496
1.28146
1.22809
1.17726
1.1258
1.06349
0.959385
0.726122
0.586539
1.52163
1.51945
1.49461
1.45471
1.40762
1.3609
1.31926
1.28261
1.24316
1.17469
0.983458
0.705528
1.58117
1.57961
1.55818
1.52356
1.4829
1.44401
1.41316
1.39214
1.37461
1.33631
1.19104
0.797259
1.60135
1.60275
1.58627
1.55816
1.52586
1.49747
1.48052
1.47644
1.48163
1.47529
1.38783
0.885369
1.59259
1.59793
1.58781
1.56688
1.54211
1.52253
1.51667
1.52985
1.5608
1.58471
1.5516
0.965033
1.56608
1.57442
1.56941
1.55517
1.53743
1.52612
1.5289
1.5535
1.61011
1.6698
1.67666
1.05626
1.53839
1.54411
1.53992
1.5287
1.51476
1.50909
1.51808
1.55378
1.63023
1.73219
1.77289
1.15517
1.52845
1.52266
1.51104
1.49565
1.48096
1.47631
1.48668
1.52767
1.62234
1.76514
1.87175
1.25802
1.54465
1.5177
1.49102
1.46571
1.44428
1.43511
1.44321
1.48229
1.58269
1.77164
1.9856
1.37884
1.58116
1.52704
1.48066
1.44133
1.40988
1.39298
1.3975
1.42957
1.52067
1.73175
2.08734
1.56326
0.0521301
0.0674499
0.0770663
0.0723233
0.0753163
0.115929
0.339491
0.491604
0.557876
0.597606
0.620617
0.630307
0.111092
0.17382
0.187324
0.187592
0.300626
0.35888
0.495552
0.649573
0.787893
0.919037
1.03688
1.12835
0.160522
0.328242
0.38616
0.377703
0.438782
0.569804
0.752713
0.929323
1.08739
1.22051
1.32431
1.3914
0.198038
0.402455
0.454678
0.473278
0.583901
0.755296
0.93834
1.10464
1.24914
1.36674
1.45392
1.50734
0.21877
0.462451
0.528738
0.570976
0.702857
0.877387
1.05131
1.20457
1.33491
1.44008
1.51835
1.56715
0.219959
0.479385
0.571817
0.646119
0.781136
0.947805
1.10781
1.24782
1.36739
1.4642
1.53683
1.58426
0.210229
0.467727
0.578973
0.684261
0.825777
0.983026
1.12967
1.25829
1.36891
1.45857
1.52677
1.57278
0.204471
0.452317
0.593913
0.730717
0.882032
1.02848
1.15849
1.27091
1.36713
1.44391
1.5034
1.54559
0.209186
0.46533
0.663142
0.851095
1.01527
1.14333
1.24369
1.32541
1.39442
1.45165
1.49473
1.52463
0.228446
0.546199
0.880134
1.13904
1.30598
1.39781
1.44733
1.47497
1.49414
1.51036
1.52344
1.53156
0.273193
0.748194
1.28323
1.59075
1.72577
1.76481
1.75907
1.72482
1.68393
1.64302
1.60678
1.57516
0.80147
1.22384
1.74727
2.00037
2.08075
2.07658
2.03247
1.96001
1.87794
1.79469
1.71629
1.64554
0.626737
0.621795
0.61021
0.591585
0.564738
0.532331
0.491989
0.444153
0.385444
0.317134
0.24996
0.201341
1.18704
1.20908
1.20226
1.16023
1.10857
1.05334
0.99505
0.930366
0.84868
0.695268
0.511324
0.438602
1.41573
1.41454
1.3851
1.33807
1.2843
1.23068
1.17961
1.12792
1.06536
0.960955
0.727238
0.587375
1.52587
1.52342
1.4983
1.45811
1.41073
1.36372
1.32182
1.28493
1.24524
1.1765
0.984872
0.706486
1.58555
1.58375
1.56206
1.52715
1.4862
1.44701
1.4159
1.39462
1.37684
1.33828
1.19267
0.798285
1.60568
1.60691
1.59022
1.56184
1.52926
1.50059
1.48336
1.47906
1.484
1.47739
1.38962
0.886448
1.59686
1.60204
1.59174
1.57056
1.54552
1.52567
1.51956
1.53249
1.56322
1.5869
1.55348
0.966154
1.57007
1.5783
1.57315
1.5587
1.54073
1.52918
1.53176
1.55612
1.61248
1.67198
1.67858
1.05742
1.54188
1.54757
1.54331
1.53194
1.51782
1.51193
1.52076
1.55626
1.63251
1.73434
1.77478
1.15632
1.53131
1.52556
1.51394
1.49845
1.48363
1.4788
1.48906
1.52988
1.62437
1.76701
1.87354
1.25914
1.54682
1.51993
1.4933
1.46797
1.44649
1.43717
1.44517
1.48412
1.58436
1.77325
1.98719
1.37984
1.58264
1.52867
1.48237
1.44307
1.41161
1.39457
1.39899
1.43093
1.52187
1.73283
2.08854
1.56409
0.052076
0.0673827
0.0769987
0.0722329
0.0750806
0.114631
0.337216
0.489553
0.555893
0.595508
0.618534
0.628218
0.11092
0.173682
0.187037
0.186502
0.299181
0.3573
0.492963
0.646653
0.784354
0.915129
1.03271
1.12403
0.160111
0.327388
0.385585
0.37686
0.436482
0.566875
0.749004
0.925162
1.08276
1.21557
1.31921
1.38629
0.197471
0.401308
0.453326
0.47153
0.580895
0.751747
0.934192
1.10005
1.24419
1.36152
1.44854
1.50193
0.218014
0.460933
0.526942
0.568551
0.699676
0.873681
1.04711
1.19997
1.32995
1.43489
1.51299
1.56173
0.219348
0.477895
0.569792
0.643397
0.778002
0.944212
1.10381
1.24334
1.36239
1.45919
1.53168
1.579
0.209712
0.466387
0.577074
0.681801
0.822837
0.979709
1.12598
1.25421
1.36437
1.45391
1.52194
1.56784
0.204106
0.451301
0.592244
0.728575
0.879501
1.0256
1.15529
1.26736
1.3633
1.43991
1.49918
1.5412
0.208915
0.4645
0.661877
0.849521
1.01344
1.1412
1.24125
1.32266
1.39132
1.44828
1.49121
1.52095
0.22821
0.545637
0.879426
1.13828
1.30512
1.39673
1.44597
1.4733
1.49217
1.50793
1.5207
1.52859
0.272984
0.747836
1.28295
1.59054
1.7256
1.76449
1.7586
1.72409
1.68292
1.64169
1.60511
1.57319
0.80133
1.22365
1.74709
2.00029
2.08076
2.07657
2.03241
1.95983
1.87758
1.7941
1.71544
1.6444
0.624702
0.619821
0.608299
0.589846
0.56314
0.530918
0.490754
0.443124
0.384611
0.316541
0.24964
0.20091
1.18275
1.20494
1.19829
1.1565
1.10514
1.0502
0.992234
0.927897
0.84659
0.693673
0.510285
0.437842
1.41074
1.40969
1.38045
1.33367
1.28018
1.22687
1.17613
1.1248
1.06264
0.958725
0.725691
0.586379
1.52054
1.51822
1.49328
1.45331
1.4062
1.35949
1.31791
1.28137
1.24207
1.17379
0.98284
0.705268
1.58014
1.57844
1.5569
1.52218
1.48145
1.44252
1.4117
1.39073
1.37333
1.33523
1.19026
0.796922
1.60041
1.60169
1.58511
1.55689
1.5245
1.49603
1.47904
1.47497
1.48024
1.47409
1.38693
0.884973
1.59187
1.59707
1.58684
1.56578
1.54088
1.52121
1.51527
1.5284
1.55937
1.58341
1.55061
0.964581
1.56558
1.57377
1.56864
1.55425
1.53637
1.52493
1.52761
1.5521
1.60866
1.66844
1.67559
1.05575
1.53804
1.54363
1.53934
1.52797
1.5139
1.50808
1.51695
1.55249
1.62881
1.73079
1.77178
1.15459
1.52824
1.52234
1.5106
1.49511
1.4803
1.47546
1.48572
1.52653
1.62097
1.76371
1.87058
1.25737
1.54457
1.51754
1.49076
1.46535
1.44381
1.43444
1.44242
1.4813
1.5814
1.77019
1.98437
1.3781
1.58126
1.52705
1.48058
1.44114
1.4096
1.39246
1.39686
1.42872
1.51952
1.73024
2.08602
1.56239
1.95667
1.99026
2.03504
2.08859
2.11096
2.10014
2.0721
2.01772
1.94351
1.86039
1.77188
1.68492
1.83059
1.81792
1.82379
1.8462
1.87283
1.88934
1.88835
1.87257
1.84412
1.79683
1.72723
1.6531
1.61967
1.61008
1.60653
1.6079
1.61737
1.62905
1.63913
1.63983
1.63354
1.61727
1.5917
1.5532
1.41177
1.41013
1.408
1.40703
1.40981
1.41694
1.42748
1.43724
1.43909
1.43558
1.42361
1.40412
1.60267
1.53027
1.46887
1.41816
1.37902
1.35641
1.35857
1.38262
1.45293
1.62908
2.02681
2.01009
1.57548
1.50322
1.43912
1.38681
1.34837
1.32739
1.32957
1.34789
1.39619
1.50586
1.78063
1.85901
1.4966
1.4391
1.38622
1.34449
1.31634
1.30093
1.30107
1.31129
1.34012
1.39081
1.53614
1.62536
1.37984
1.35008
1.31444
1.28623
1.2632
1.24416
1.23163
1.22763
1.24111
1.26471
1.33771
1.40038
1.95521
1.98865
2.03324
2.08687
2.10975
2.09913
2.07135
2.01718
1.94294
1.85977
1.77115
1.68406
1.82933
1.81635
1.82198
1.84429
1.87098
1.88718
1.88749
1.87144
1.843
1.7959
1.72631
1.65216
1.61856
1.60869
1.60494
1.60612
1.61547
1.62716
1.63818
1.63784
1.63191
1.61586
1.59039
1.55201
1.41065
1.4088
1.40652
1.40539
1.40801
1.4151
1.42575
1.43546
1.43754
1.43418
1.42238
1.40303
1.60171
1.52926
1.46787
1.41725
1.37821
1.356
1.35836
1.38274
1.45351
1.63025
2.02848
2.01182
1.57453
1.50229
1.43826
1.3861
1.34779
1.3273
1.32971
1.34838
1.39716
1.50738
1.78283
1.86139
1.4956
1.43823
1.38554
1.34408
1.31618
1.30133
1.30173
1.31236
1.34164
1.39273
1.53868
1.62817
1.37898
1.34955
1.31426
1.28645
1.26379
1.24523
1.233
1.22937
1.24329
1.26715
1.34055
1.40343
1.957
1.9906
2.03544
2.0892
2.11184
2.10108
2.07308
2.01854
1.94417
1.86086
1.7722
1.68515
1.83182
1.81904
1.82487
1.84731
1.87402
1.88989
1.88997
1.87366
1.845
1.79746
1.72769
1.65342
1.6215
1.61176
1.60812
1.60938
1.61879
1.63034
1.64037
1.6409
1.63446
1.61801
1.59234
1.55367
1.41378
1.41197
1.4097
1.40859
1.41118
1.41815
1.42854
1.43815
1.43981
1.43619
1.42412
1.40458
1.60286
1.53049
1.46917
1.41857
1.37952
1.35713
1.35938
1.38359
1.45416
1.6307
2.02888
2.01216
1.5757
1.50343
1.43935
1.38712
1.34876
1.32797
1.33023
1.34868
1.39718
1.50713
1.78237
1.86081
1.49688
1.43934
1.38649
1.34483
1.31676
1.30149
1.30169
1.31202
1.34096
1.39181
1.53749
1.62685
1.38025
1.35042
1.31483
1.28668
1.26371
1.24474
1.23224
1.2283
1.24188
1.26556
1.33878
1.4016
1.95706
1.99048
2.03502
2.08862
2.11129
2.10056
2.07257
2.0182
1.94381
1.86047
1.7717
1.68449
1.83112
1.81813
1.82375
1.84604
1.87271
1.88931
1.88841
1.87266
1.84419
1.79685
1.72711
1.65282
1.6201
1.61026
1.60654
1.60773
1.6171
1.62876
1.63885
1.63958
1.63331
1.61705
1.59147
1.55293
1.41195
1.41014
1.40789
1.40679
1.40943
1.4165
1.42702
1.43679
1.4387
1.43523
1.42329
1.40382
1.60203
1.52946
1.46796
1.41722
1.37807
1.35559
1.35783
1.382
1.45247
1.62885
2.02697
2.01048
1.57504
1.50266
1.4385
1.38618
1.34773
1.32692
1.3292
1.34766
1.39615
1.50602
1.78113
1.85976
1.49628
1.43873
1.38583
1.34415
1.31605
1.30086
1.30111
1.3115
1.34051
1.39133
1.53686
1.62627
1.37958
1.34987
1.31433
1.28625
1.26334
1.24448
1.23205
1.22817
1.24178
1.26543
1.33852
1.40126
1.24549
1.24887
1.25279
1.25797
1.26579
1.2754
1.28449
1.28884
1.28453
1.27351
1.26138
1.2545
1.11965
1.13167
1.14232
1.15184
1.16059
1.16709
1.16934
1.16549
1.15551
1.14493
1.13961
1.14002
1.03062
1.05006
1.06494
1.07522
1.08138
1.08172
1.07515
1.06334
1.04907
1.03703
1.02633
1.0075
0.96626
0.991069
1.00765
1.01676
1.01898
1.01172
0.995983
0.974995
0.952862
0.928543
0.891541
0.822159
1.25261
1.21907
1.17208
1.13635
1.10485
1.08555
1.08266
1.09677
1.1275
1.16621
1.21367
1.2399
1.14054
1.07917
1.00226
0.954482
0.926063
0.920282
0.934666
0.96533
1.00608
1.04889
1.08597
1.10686
0.992954
0.931618
0.845987
0.803272
0.789182
0.798067
0.8254
0.864602
0.908641
0.950797
0.985228
1.00945
0.761566
0.773567
0.710389
0.686161
0.687857
0.709255
0.744494
0.787351
0.831964
0.873524
0.90909
0.938341
1.24423
1.24744
1.25127
1.25639
1.26418
1.27383
1.28303
1.28752
1.28349
1.27277
1.26098
1.25434
1.11844
1.13036
1.14099
1.15052
1.15928
1.16584
1.16822
1.16463
1.15501
1.14493
1.14035
1.14077
1.02958
1.04901
1.06392
1.07422
1.0804
1.0808
1.0744
1.06288
1.04901
1.03744
1.02727
1.00857
0.965483
0.990357
1.00698
1.0161
1.01832
1.01112
0.99556
0.974871
0.953101
0.929176
0.892506
0.823287
1.25282
1.21968
1.17308
1.13775
1.10659
1.08762
1.08494
1.09923
1.13013
1.16897
1.21659
1.24288
1.14152
1.08049
1.00391
0.956443
0.928277
0.922689
0.937174
0.967903
1.0087
1.05156
1.08866
1.10955
0.994353
0.933276
0.847882
0.805381
0.791458
0.800447
0.827822
0.867023
0.911042
0.953177
0.987555
1.01168
0.763071
0.77526
0.712253
0.688179
0.690001
0.711471
0.746722
0.789538
0.834079
0.875554
0.91101
0.940142
1.2472
1.25033
1.25407
1.25907
1.26671
1.27617
1.28513
1.28936
1.28492
1.2739
1.26176
1.25491
1.12104
1.13278
1.14325
1.1526
1.16121
1.16758
1.16974
1.16582
1.1558
1.14527
1.13997
1.14039
1.03171
1.05092
1.06562
1.07578
1.08182
1.08207
1.07542
1.06359
1.04934
1.03732
1.02663
1.00778
0.967141
0.991765
1.0082
1.01722
1.01935
1.012
0.996209
0.975204
0.953068
0.928727
0.891702
0.822395
1.25303
1.21954
1.17261
1.13691
1.10542
1.08614
1.08327
1.09741
1.12822
1.16702
1.21462
1.24093
1.1409
1.07963
1.00279
0.955022
0.926597
0.920813
0.935204
0.965899
1.0067
1.04958
1.08673
1.10766
0.993259
0.932008
0.846456
0.803749
0.789642
0.798515
0.825848
0.865066
0.909135
0.95133
0.98578
1.00999
0.761892
0.773887
0.710787
0.68656
0.688241
0.709622
0.744852
0.787709
0.832329
0.873893
0.909445
0.93866
1.2453
1.24853
1.25237
1.2575
1.26528
1.2749
1.28401
1.28842
1.28419
1.27327
1.26124
1.25441
1.11924
1.13115
1.14178
1.15129
1.16005
1.16658
1.16889
1.16515
1.15528
1.14489
1.13986
1.14015
1.0301
1.0495
1.06439
1.07468
1.08087
1.08125
1.07477
1.06309
1.04897
1.03709
1.02656
1.0077
0.965755
0.990565
1.00716
1.01629
1.01853
1.01133
0.995695
0.974851
0.952869
0.928683
0.89176
0.822345
1.25264
1.21923
1.17236
1.13675
1.10533
1.08612
1.08327
1.09742
1.12819
1.1669
1.21443
1.24074
1.14075
1.07945
1.0026
0.954878
0.926511
0.920778
0.935196
0.965881
1.00663
1.04941
1.08649
1.10753
0.993205
0.93186
0.846237
0.803562
0.789523
0.798449
0.825812
0.865017
0.90903
0.951116
0.985471
1.00983
0.761718
0.773689
0.710509
0.686331
0.688092
0.709539
0.744799
0.787637
0.832191
0.873653
0.909088
0.938319
0.917159
0.946122
0.963684
0.971442
0.970236
0.955102
0.92812
0.893225
0.850287
0.783991
0.637684
0.381455
0.876447
0.909559
0.929067
0.936812
0.933061
0.909875
0.869033
0.81223
0.733399
0.602493
0.325611
0.0969906
0.839293
0.877082
0.900146
0.909444
0.904998
0.874453
0.818081
0.734955
0.616331
0.436139
0.175174
0.0687881
0.802192
0.844707
0.872942
0.885373
0.882262
0.846478
0.776436
0.670048
0.522888
0.333883
0.153833
0.0698109
0.762131
0.809042
0.843249
0.860141
0.860075
0.82207
0.743324
0.622326
0.464133
0.293218
0.163579
0.0732297
0.716779
0.76716
0.806895
0.82862
0.832512
0.796274
0.715055
0.589339
0.433389
0.283006
0.176993
0.075327
0.664488
0.716794
0.760536
0.786941
0.795297
0.76389
0.686142
0.564105
0.417582
0.282882
0.184942
0.0768548
0.604055
0.656354
0.701884
0.732025
0.744876
0.720085
0.65067
0.53854
0.40495
0.28276
0.18758
0.0751382
0.534171
0.584284
0.628948
0.661025
0.677878
0.659955
0.602727
0.504974
0.386239
0.275119
0.182105
0.0689597
0.451745
0.497106
0.53778
0.569321
0.588827
0.577261
0.533369
0.455127
0.352897
0.252961
0.16221
0.0587366
0.345412
0.381536
0.414333
0.442268
0.461658
0.455522
0.423924
0.371054
0.291251
0.204345
0.12017
0.0438043
0.153461
0.168855
0.182264
0.196541
0.210144
0.21229
0.203252
0.185239
0.156534
0.115951
0.0729469
0.029833
0.433261
0.605835
0.596478
0.595293
0.611162
0.641165
0.680727
0.72491
0.769479
0.811429
0.849432
0.88378
0.282744
0.475852
0.505364
0.523478
0.549629
0.584926
0.626554
0.670988
0.715485
0.758417
0.79932
0.838403
0.218561
0.388869
0.434965
0.464588
0.496975
0.535088
0.57736
0.621466
0.665864
0.709931
0.753653
0.796982
0.178386
0.326472
0.37811
0.413677
0.449285
0.488433
0.530389
0.573737
0.61785
0.662816
0.708905
0.755851
0.149017
0.277262
0.329401
0.367469
0.404218
0.443101
0.484014
0.52619
0.569653
0.614994
0.662682
0.712356
0.125117
0.234902
0.285491
0.324017
0.360411
0.398002
0.437253
0.477815
0.520135
0.56512
0.613412
0.664636
0.104026
0.196198
0.244476
0.282186
0.317033
0.352439
0.389447
0.42793
0.468538
0.512329
0.560063
0.611432
0.0859568
0.159266
0.205302
0.241227
0.273439
0.305791
0.339983
0.375902
0.414205
0.455912
0.501859
0.551824
0.0694356
0.123981
0.167332
0.200384
0.228791
0.257165
0.287926
0.320765
0.356143
0.39486
0.437744
0.484674
0.0535147
0.090534
0.129844
0.158218
0.181313
0.20458
0.231132
0.260182
0.291889
0.326609
0.365072
0.407185
0.038211
0.0590352
0.0902864
0.110332
0.12548
0.14183
0.162994
0.186951
0.213515
0.242517
0.274491
0.309167
0.0166933
0.0238908
0.038546
0.047265
0.0525334
0.0580981
0.0673837
0.0795555
0.0926326
0.106526
0.121457
0.137384
0.916675
0.945746
0.96335
0.971105
0.96988
0.954785
0.927968
0.893339
0.850684
0.784632
0.638388
0.382013
0.876254
0.909501
0.929052
0.936776
0.932982
0.909813
0.869098
0.81248
0.733806
0.602953
0.325886
0.0970881
0.839341
0.877286
0.900391
0.909669
0.905166
0.87461
0.818301
0.735263
0.61667
0.436404
0.175284
0.0688379
0.80243
0.845116
0.873398
0.885807
0.882638
0.846814
0.776772
0.670384
0.523169
0.334066
0.153936
0.0698616
0.76248
0.809572
0.843831
0.860718
0.860607
0.822538
0.743745
0.622688
0.464402
0.293404
0.163704
0.0732841
0.717177
0.767742
0.80754
0.82927
0.833131
0.796824
0.71553
0.589725
0.433672
0.283211
0.177132
0.0753832
0.664869
0.717358
0.761169
0.787597
0.795938
0.76447
0.68664
0.564504
0.417882
0.283103
0.185088
0.0769116
0.604381
0.656852
0.702456
0.732634
0.745486
0.720649
0.651161
0.538936
0.405254
0.282986
0.187727
0.0751934
0.534413
0.58469
0.629421
0.66155
0.678418
0.660464
0.603182
0.505346
0.386531
0.275336
0.182242
0.0690076
0.451904
0.497407
0.538143
0.569738
0.589271
0.577689
0.533761
0.455458
0.353155
0.253153
0.162325
0.0587753
0.345506
0.381734
0.414576
0.442563
0.461983
0.455843
0.424222
0.371316
0.291452
0.20449
0.120247
0.04383
0.153464
0.168922
0.182356
0.196672
0.210294
0.212443
0.203396
0.185369
0.156642
0.116028
0.0729903
0.029848
0.43434
0.607355
0.598165
0.597101
0.613113
0.643183
0.682743
0.726858
0.771314
0.813126
0.850981
0.885165
0.283511
0.477138
0.506845
0.525103
0.55139
0.586756
0.628374
0.67272
0.717068
0.759822
0.800532
0.839427
0.219165
0.389941
0.436246
0.466034
0.498562
0.53675
0.579007
0.623007
0.667231
0.711086
0.754589
0.797696
0.17888
0.327372
0.379215
0.414962
0.45072
0.489947
0.531884
0.575115
0.619034
0.663766
0.709607
0.75632
0.149426
0.278021
0.330358
0.368611
0.405517
0.444481
0.485373
0.527425
0.570684
0.615777
0.663209
0.712629
0.125458
0.23554
0.286317
0.325032
0.361585
0.399259
0.438487
0.478923
0.521035
0.56577
0.613796
0.66477
0.104308
0.19673
0.245186
0.283081
0.318087
0.353576
0.390561
0.42892
0.469325
0.51287
0.560347
0.611465
0.0861916
0.159697
0.205902
0.242005
0.274373
0.306807
0.340976
0.376778
0.414887
0.456364
0.502065
0.551794
0.0696247
0.124319
0.167827
0.201046
0.229601
0.258053
0.288793
0.321525
0.356725
0.395232
0.437892
0.484604
0.0536595
0.0907815
0.130237
0.158757
0.181987
0.205322
0.231855
0.260811
0.292368
0.326904
0.365171
0.407091
0.0383131
0.0591964
0.0905722
0.110732
0.125986
0.142388
0.163535
0.187418
0.213868
0.242725
0.274542
0.309065
0.0167356
0.0239494
0.0386677
0.0474411
0.0527598
0.0583456
0.0676033
0.0797436
0.0927722
0.106599
0.121458
0.137315
0.917892
0.946723
0.964179
0.971873
0.970577
0.955364
0.928328
0.893385
0.850382
0.783991
0.637662
0.381554
0.877084
0.910107
0.929538
0.937235
0.933401
0.910139
0.869227
0.812339
0.733399
0.602408
0.325604
0.0970359
0.839852
0.877591
0.900594
0.909852
0.905328
0.874711
0.818265
0.735042
0.616331
0.436149
0.175268
0.0688239
0.802677
0.84517
0.873345
0.885739
0.882556
0.846707
0.776604
0.670144
0.522946
0.334009
0.153947
0.069847
0.762531
0.809434
0.843576
0.860428
0.860301
0.822238
0.743459
0.622424
0.46424
0.293371
0.163689
0.0732638
0.717084
0.767459
0.807123
0.828803
0.83264
0.796357
0.715129
0.589419
0.433502
0.28314
0.177081
0.0753599
0.664683
0.716988
0.760655
0.787006
0.795311
0.763878
0.686139
0.564146
0.417666
0.282985
0.185011
0.0768858
0.604141
0.656439
0.701893
0.731981
0.744783
0.719983
0.650588
0.53853
0.404988
0.282825
0.187636
0.0751614
0.534149
0.584274
0.628858
0.660904
0.677687
0.659794
0.602563
0.504923
0.386222
0.275154
0.182139
0.0689787
0.451644
0.497014
0.53763
0.56914
0.588594
0.57705
0.533175
0.455025
0.352853
0.252963
0.162232
0.0587486
0.345274
0.381399
0.414161
0.442078
0.461428
0.455309
0.423734
0.370928
0.2912
0.204333
0.120182
0.0438092
0.153346
0.16876
0.182167
0.196453
0.210049
0.212185
0.203159
0.185159
0.156482
0.115931
0.072937
0.0298281
0.433548
0.606111
0.59681
0.595626
0.611477
0.64146
0.681004
0.725173
0.769729
0.811657
0.849618
0.883904
0.282925
0.476096
0.505641
0.523755
0.549888
0.58516
0.626764
0.671173
0.715639
0.758528
0.799369
0.83837
0.2187
0.38908
0.4352
0.464821
0.497188
0.535273
0.577515
0.621587
0.665943
0.709953
0.753597
0.796829
0.178493
0.326653
0.378312
0.413874
0.44946
0.488579
0.530502
0.573811
0.617873
0.662773
0.708775
0.755617
0.149106
0.277415
0.329574
0.367635
0.404363
0.443216
0.484094
0.526228
0.569638
0.614908
0.662506
0.712072
0.125187
0.235028
0.285636
0.324158
0.360532
0.398093
0.437308
0.477828
0.520094
0.565009
0.613211
0.664329
0.10408
0.196299
0.244596
0.282305
0.317133
0.352509
0.389484
0.427927
0.468483
0.512207
0.559854
0.611121
0.0859998
0.159339
0.205398
0.241324
0.27352
0.305845
0.340005
0.375888
0.414143
0.455789
0.501656
0.551525
0.0694684
0.124029
0.167405
0.200462
0.228856
0.257204
0.287937
0.320745
0.356081
0.394744
0.437555
0.484399
0.0535347
0.0905597
0.129895
0.158277
0.181362
0.204605
0.231133
0.260157
0.291831
0.326505
0.364905
0.406943
0.0382201
0.0590439
0.0903189
0.110372
0.125512
0.14184
0.162986
0.186925
0.213466
0.242433
0.274357
0.308974
0.0166979
0.0238931
0.0385606
0.0472861
0.0525512
0.0581043
0.0673725
0.0795363
0.0926036
0.10648
0.121388
0.137286
0.916726
0.945718
0.963295
0.971061
0.969869
0.954789
0.92792
0.893165
0.850358
0.784146
0.637846
0.381549
0.876129
0.909287
0.928806
0.936542
0.932792
0.90965
0.868908
0.812215
0.733465
0.602581
0.32565
0.0969587
0.839085
0.876933
0.899998
0.909283
0.904824
0.874303
0.817997
0.734936
0.616334
0.436103
0.175096
0.0687299
0.802083
0.844668
0.872899
0.885306
0.882169
0.846383
0.776366
0.669996
0.522812
0.333756
0.153724
0.069747
0.762081
0.80907
0.843264
0.860134
0.860037
0.822002
0.743248
0.622233
0.464001
0.29306
0.163448
0.0731665
0.716757
0.767217
0.806938
0.828636
0.832494
0.796209
0.714959
0.58921
0.433227
0.282841
0.176858
0.0752642
0.66445
0.716837
0.760562
0.786942
0.795266
0.763806
0.686018
0.563945
0.417405
0.282718
0.184808
0.0767923
0.60398
0.656355
0.701869
0.731988
0.744811
0.71997
0.650517
0.538358
0.404766
0.2826
0.187449
0.0750807
0.534045
0.584232
0.628875
0.660941
0.677772
0.659803
0.602552
0.504777
0.386055
0.274966
0.181983
0.0689094
0.451582
0.497005
0.537661
0.569198
0.588689
0.577087
0.533184
0.454933
0.352717
0.252817
0.1621
0.0586957
0.345249
0.381412
0.414195
0.442134
0.461513
0.455354
0.423753
0.370888
0.291088
0.204222
0.120085
0.0437752
0.15334
0.16877
0.18218
0.196479
0.210079
0.212213
0.203171
0.185161
0.156461
0.115888
0.072905
0.0298156
0.43327
0.605828
0.596486
0.595349
0.611315
0.641371
0.680944
0.725085
0.769558
0.811362
0.849173
0.883391
0.282677
0.475776
0.505325
0.523497
0.54973
0.585077
0.626706
0.671076
0.715438
0.758177
0.798816
0.837695
0.218485
0.388776
0.434907
0.464587
0.497045
0.535204
0.577468
0.621489
0.665722
0.709552
0.75296
0.796013
0.178318
0.326387
0.378048
0.413668
0.44934
0.48853
0.53047
0.573721
0.617645
0.662346
0.708077
0.7547
0.148961
0.27719
0.329346
0.36746
0.404269
0.44319
0.484083
0.526155
0.569419
0.614478
0.661794
0.711106
0.125072
0.234842
0.285444
0.324013
0.360462
0.398091
0.437322
0.477779
0.519898
0.564604
0.612518
0.663376
0.103992
0.196151
0.244439
0.282188
0.317087
0.352529
0.389521
0.427906
0.46832
0.511844
0.559224
0.610237
0.085929
0.15923
0.205273
0.241233
0.273493
0.305882
0.340064
0.375896
0.414019
0.455483
0.501111
0.550758
0.0694129
0.123955
0.167309
0.200392
0.22884
0.257251
0.288009
0.320779
0.355995
0.394499
0.43711
0.483783
0.053498
0.0905153
0.129827
0.158223
0.181352
0.204651
0.231209
0.260206
0.291779
0.326313
0.36456
0.406506
0.0381999
0.0590228
0.090273
0.11033
0.125498
0.141869
0.163051
0.186975
0.213434
0.24227
0.274087
0.308786
0.0166894
0.023886
0.0385393
0.0472602
0.0525346
0.0581075
0.0674212
0.0795901
0.0926223
0.106443
0.12133
0.137309
)
;

boundaryField
{
    rotor
    {
        type            kqRWallFunction;
        value           nonuniform List<scalar> 
192
(
0.0522166
0.0676085
0.0772398
0.0724917
0.0755105
0.116321
0.339523
0.490949
0.556895
0.596457
0.619325
0.628947
0.625365
0.620414
0.608844
0.590291
0.563546
0.531269
0.491068
0.443387
0.384817
0.316687
0.249735
0.200979
0.052046
0.0673349
0.0769371
0.0721695
0.0749962
0.114466
0.337065
0.489663
0.556141
0.595842
0.618943
0.628672
0.625164
0.620287
0.608772
0.590292
0.563543
0.531268
0.491042
0.443339
0.384761
0.316619
0.249608
0.200955
0.0521301
0.0674499
0.0770663
0.0723233
0.0753163
0.115929
0.339491
0.491604
0.557876
0.597606
0.620617
0.630307
0.626737
0.621795
0.61021
0.591585
0.564738
0.532331
0.491989
0.444153
0.385444
0.317134
0.24996
0.201341
0.052076
0.0673827
0.0769987
0.0722329
0.0750806
0.114631
0.337216
0.489553
0.555893
0.595508
0.618534
0.628218
0.624702
0.619821
0.608299
0.589846
0.56314
0.530918
0.490754
0.443124
0.384611
0.316541
0.24964
0.20091
0.0522166
0.111201
0.160742
0.198227
0.219009
0.220044
0.210277
0.204368
0.208972
0.228131
0.272817
0.801402
0.20091
0.437842
0.586379
0.705268
0.796922
0.884973
0.964581
1.05575
1.15459
1.25737
1.3781
1.56239
0.052046
0.110837
0.159975
0.197343
0.217889
0.219293
0.209679
0.204114
0.208929
0.228202
0.272883
0.800421
0.200979
0.438002
0.586579
0.7055
0.797186
0.885268
0.964905
1.05612
1.15498
1.25774
1.37839
1.56247
0.0521301
0.111092
0.160522
0.198038
0.21877
0.219959
0.210229
0.204471
0.209186
0.228446
0.273193
0.80147
0.200955
0.437914
0.586539
0.705528
0.797259
0.885369
0.965033
1.05626
1.15517
1.25802
1.37884
1.56326
0.052076
0.11092
0.160111
0.197471
0.218014
0.219348
0.209712
0.204106
0.208915
0.22821
0.272984
0.80133
0.201341
0.438602
0.587375
0.706486
0.798285
0.886448
0.966154
1.05742
1.15632
1.25914
1.37984
1.56409
)
;
    }
    stator
    {
        type            kqRWallFunction;
        value           nonuniform List<scalar> 
192
(
0.153461
0.168855
0.182264
0.196541
0.210144
0.21229
0.203252
0.185239
0.156534
0.115951
0.0729469
0.029833
0.0166933
0.0238908
0.038546
0.047265
0.0525334
0.0580981
0.0673837
0.0795555
0.0926326
0.106526
0.121457
0.137384
0.153464
0.168922
0.182356
0.196672
0.210294
0.212443
0.203396
0.185369
0.156642
0.116028
0.0729903
0.029848
0.0167356
0.0239494
0.0386677
0.0474411
0.0527598
0.0583456
0.0676033
0.0797436
0.0927722
0.106599
0.121458
0.137315
0.153346
0.16876
0.182167
0.196453
0.210049
0.212185
0.203159
0.185159
0.156482
0.115931
0.072937
0.0298281
0.0166979
0.0238931
0.0385606
0.0472861
0.0525512
0.0581043
0.0673725
0.0795363
0.0926036
0.10648
0.121388
0.137286
0.15334
0.16877
0.18218
0.196479
0.210079
0.212213
0.203171
0.185161
0.156461
0.115888
0.072905
0.0298156
0.0166894
0.023886
0.0385393
0.0472602
0.0525346
0.0581075
0.0674212
0.0795901
0.0926223
0.106443
0.12133
0.137309
0.433261
0.282744
0.218561
0.178386
0.149017
0.125117
0.104026
0.0859568
0.0694356
0.0535147
0.038211
0.0166933
0.381455
0.0969906
0.0687881
0.0698109
0.0732297
0.075327
0.0768548
0.0751382
0.0689597
0.0587366
0.0438043
0.029833
0.43434
0.283511