/*--------------------------------*- C++ -*----------------------------------*\
| =========                 |                                                 |
| \\      /  F ield         | OpenFOAM: The Open Source CFD Toolbox           |
|  \\    /   O peration     | Version:  4.0                                   |
|   \\  /    A nd           | Web:      www.OpenFOAM.org                      |
|    \\/     M anipulation  |                                                 |
\*---------------------------------------------------------------------------*/
FoamFile
{
    version     2.0;
    format      ascii;
    class       volScalarField;
    location    "200";
    object      nut;
}
// * * * * * * * * * * * * * * * * * * * * * * * * * * * * * * * * * * * * * //

dimensions      [0 2 -1 0 0 0 0];

internalField   nonuniform List<scalar> 
3072
(
3.53012e-05
7.35158e-05
7.85317e-05
7.60287e-05
7.73802e-05
9.50383e-05
0.000163631
0.000197791
0.000210973
0.000218449
0.000222722
0.000224507
5.75202e-05
0.000171287
0.000193655
0.000118451
0.00015766
0.000192766
0.00027917
0.000404326
0.000567628
0.000757262
0.00096092
0.00114329
7.64533e-05
0.0003167
0.000304331
0.000270387
0.000325099
0.000468706
0.000692285
0.000990435
0.00131333
0.00162751
0.00191219
0.00214213
9.31353e-05
0.000391935
0.000412565
0.000425376
0.000578545
0.000839686
0.00117794
0.00155573
0.00193479
0.00228731
0.00258689
0.00281956
0.000106491
0.000492569
0.000559799
0.000626487
0.000851884
0.00118588
0.00157579
0.00197312
0.00235707
0.00270802
0.00300667
0.0032436
0.000115468
0.000557167
0.00068281
0.000816576
0.00108889
0.00144658
0.00184042
0.00223136
0.002603
0.00293945
0.0032262
0.00345957
0.000121366
0.000615087
0.000779144
0.000969179
0.0012492
0.00160233
0.00198083
0.00235539
0.00271257
0.00302753
0.00329679
0.00351759
0.000127933
0.000686648
0.000903446
0.00110517
0.00139471
0.00172295
0.00206156
0.00239485
0.00271656
0.00299849
0.00324286
0.00344841
0.000137566
0.00075955
0.00105745
0.0013378
0.00162181
0.00189796
0.00216656
0.00243006
0.00268677
0.00292568
0.0031323
0.00330897
0.000152156
0.000864368
0.00129625
0.00163827
0.00190213
0.00210497
0.00228088
0.00245654
0.0026296
0.00280408
0.00297208
0.00312614
0.000175526
0.000853923
0.00144845
0.00180986
0.00204628
0.00219029
0.00233299
0.0024483
0.00256187
0.00267489
0.00278993
0.00290395
0.000316293
0.000811496
0.0015175
0.00193538
0.00214485
0.00229217
0.00240653
0.00248794
0.00255685
0.00262083
0.00268545
0.00275348
0.000223919
0.000223075
0.00022098
0.000217636
0.000212645
0.000206463
0.000198475
0.000188535
0.000175585
0.000159286
0.00014146
6.88969e-05
0.00130385
0.00140071
0.00144933
0.001408
0.00133339
0.00121918
0.00106847
0.000876772
0.000672435
0.000416749
0.000200472
0.000114221
0.00228946
0.00238876
0.00241104
0.00235766
0.00223905
0.00206858
0.00184471
0.00154794
0.00119043
0.000787491
0.000344395
0.000146309
0.0029736
0.00308513
0.0031268
0.00309767
0.00299037
0.00281696
0.00256899
0.00221948
0.00177066
0.00122645
0.000596006
0.000175858
0.00340762
0.00352984
0.00359209
0.00359266
0.00352072
0.00337611
0.00315079
0.00280291
0.00231158
0.0016613
0.00086003
0.000203308
0.00363235
0.00376085
0.00383718
0.00386184
0.00383042
0.00373793
0.00357416
0.00327807
0.00280101
0.0020997
0.00116327
0.000231508
0.00369023
0.0038207
0.00390828
0.00395051
0.00394836
0.00390333
0.0038046
0.00360121
0.00320958
0.00251886
0.00148855
0.000259719
0.00361798
0.00375011
0.00384496
0.00390286
0.00392623
0.00392249
0.00388103
0.00376478
0.00349694
0.00287748
0.00178121
0.000290641
0.00345929
0.00358335
0.00367979
0.00374749
0.00378823
0.00381969
0.00382601
0.00380591
0.00366627
0.00318324
0.00203044
0.000323649
0.00325321
0.00336246
0.00344907
0.0035152
0.00356879
0.00362853
0.00366519
0.00371937
0.0037241
0.00341455
0.00231724
0.00035835
0.00301214
0.00310803
0.00318777
0.00325418
0.00331257
0.00338766
0.00345049
0.00354215
0.00365138
0.0035734
0.00266214
0.000396665
0.00282197
0.00289011
0.00295512
0.00301459
0.00307054
0.00314608
0.00323655
0.00333231
0.00349393
0.00361533
0.00306076
0.000445225
3.52704e-05
7.33951e-05
7.83788e-05
7.58531e-05
7.71104e-05
9.43268e-05
0.000163054
0.00019754
0.000210836
0.00021834
0.000222655
0.000224459
5.74261e-05
0.000171336
0.000194191
0.000118178
0.000156126
0.000191799
0.000277757
0.000402679
0.000565325
0.000754972
0.000958728
0.00114138
7.6269e-05
0.000316355
0.00030423
0.000269685
0.000322595
0.00046572
0.000688147
0.000985916
0.00130847
0.00162291
0.00190804
0.00213912
9.29331e-05
0.000391374
0.000410994
0.000422866
0.000574382
0.000834914
0.00117206
0.00154962
0.00192816
0.00227912
0.00257961
0.00281557
0.000106223
0.000491212
0.000557616
0.000622051
0.000846936
0.00117997
0.00156929
0.00196666
0.00235058
0.00270196
0.00300142
0.00323983
0.000115259
0.000556027
0.000680178
0.000812182
0.00108374
0.00144059
0.00183407
0.00222469
0.0025958
0.00293358
0.00322123
0.00345571
0.000121178
0.000614022
0.000776597
0.000965179
0.0012441
0.00159664
0.00197486
0.00234923
0.00270603
0.003022
0.00329204
0.00351373
0.000127846
0.000686493
0.000901377
0.00110217
0.00139095
0.00171857
0.00205679
0.0023899
0.00271141
0.0029936
0.00323831
0.00344446
0.00013755
0.000759439
0.00105697
0.00133659
0.00162
0.00189545
0.00216343
0.00242694
0.00268324
0.00292161
0.00312833
0.00330527
0.000152181
0.000865196
0.00129718
0.00163881
0.00190226
0.00210446
0.00227943
0.00245479
0.00262753
0.00280084
0.00296849
0.00312262
0.000175554
0.00085442
0.00144846
0.00180955
0.00204603
0.00218961
0.00233209
0.00244688
0.00255996
0.00267243
0.002787
0.0029008
0.000316127
0.000810906
0.00151681
0.00193427
0.00214447
0.0022912
0.00240553
0.00248667
0.00255524
0.00261883
0.00268304
0.00275075
0.000223876
0.000223029
0.000220966
0.00021763
0.000212637
0.000206453
0.000198462
0.00018852
0.000175571
0.000159261
0.000141401
6.89194e-05
0.00130248
0.00140006
0.00144907
0.00140804
0.00133367
0.00121959
0.00106895
0.000877152
0.000672694
0.000416868
0.000200494
0.00011421
0.00228745
0.00238746
0.00241037
0.0023575
0.00223928
0.00206909
0.00184528
0.00154844
0.00119081
0.000787769
0.000344491
0.000146298
0.00297088
0.00308331
0.00312573
0.00309723
0.0029904
0.00281749
0.00256967
0.00222014
0.00177117
0.0012268
0.000596184
0.000175855
0.00340465
0.00352784
0.00359093
0.00359231
0.00352106
0.00337711
0.00315186
0.00280389
0.00231232
0.00166176
0.000860244
0.000203308
0.00362962
0.00375893
0.00383606
0.00386159
0.00383094
0.00373921
0.00357569
0.00327943
0.002802
0.00210024
0.00116346
0.00023151
0.00368728
0.00381862
0.00390702
0.00395027
0.00394902
0.00390462
0.00380623
0.00360281
0.0032109
0.00251953
0.00148867
0.000259722
0.00361477
0.00374778
0.00384336
0.00390233
0.00392655
0.0039236
0.00388271
0.00376676
0.0034987
0.00287845
0.00178143
0.000290644
0.00345604
0.00358082
0.00367783
0.00374652
0.00378809
0.00382047
0.00382737
0.00380783
0.00366844
0.00318449
0.0020307
0.000323658
0.00325001
0.00335967
0.00344683
0.00351364
0.00356802
0.00362883
0.00366603
0.003721
0.00372643
0.00341637
0.00231764
0.00035837
0.00300896
0.00310511
0.00318521
0.00325213
0.00331118
0.00338756
0.00345063
0.00354337
0.00365377
0.00357565
0.00266285
0.000396707
0.0028191
0.00288725
0.00295247
0.00301233
0.00306873
0.00314565
0.00323631
0.00333315
0.003496
0.00361837
0.0030621
0.000445309
3.53037e-05
7.34603e-05
7.84561e-05
7.59469e-05
7.72841e-05
9.4897e-05
0.000163632
0.000197925
0.00021116
0.000218658
0.000222952
0.000224746
5.74938e-05
0.000171246
0.000193724
0.000118284
0.000157111
0.000192696
0.000279007
0.000404275
0.000567633
0.000757579
0.000961621
0.00114446
7.63928e-05
0.000316573
0.000304431
0.000270487
0.000324472
0.000468015
0.000691392
0.000989862
0.00131318
0.001628
0.00191343
0.00214437
9.31062e-05
0.000392195
0.000411715
0.000424101
0.000577238
0.000838417
0.00117669
0.00155496
0.00193478
0.00228817
0.00258862
0.00282229
0.000106444
0.000492475
0.000559099
0.000622771
0.000850575
0.00118433
0.00157452
0.0019725
0.00235728
0.00270917
0.00300878
0.00324675
0.000115452
0.000557207
0.000682851
0.000816588
0.00108747
0.00144511
0.00183936
0.00223094
0.00260334
0.00294063
0.0032283
0.00346262
0.000121356
0.000615176
0.000778761
0.000968218
0.00124782
0.00160108
0.00198001
0.00235515
0.00271293
0.00302871
0.00329886
0.00352054
0.000127966
0.000687012
0.000903061
0.00110428
0.00139374
0.00172205
0.00206093
0.00239463
0.00271692
0.00299933
0.00324449
0.00345088
0.000137636
0.000759998
0.00105776
0.00133783
0.0016217
0.00189779
0.00216644
0.00243015
0.0026872
0.00292642
0.00313344
0.00331078
0.000152258
0.000865428
0.0012976
0.00163959
0.00190333
0.00210597
0.0022816
0.00245723
0.00263037
0.00280494
0.00297334
0.00312797
0.000175645
0.000855019
0.00144957
0.00181113
0.00204772
0.00219156
0.00233429
0.00244947
0.00256299
0.00267593
0.00279109
0.00290539
0.000316316
0.000811844
0.00151829
0.00193644
0.0021464
0.00229364
0.00240802
0.0024893
0.00255807
0.0026219
0.00268646
0.00275456
0.000224159
0.000223314
0.000221222
0.000217865
0.000212859
0.000206658
0.000198653
0.000188695
0.000175729
0.000159376
0.000141449
6.90488e-05
0.00130552
0.00140282
0.00145174
0.00141052
0.00133589
0.00122146
0.00107055
0.000878331
0.000673503
0.000417341
0.000200701
0.000114304
0.00229243
0.00239227
0.00241495
0.00236177
0.00224317
0.00207242
0.00184818
0.00155075
0.00119244
0.000788695
0.000344848
0.0001464
0.00297717
0.00308937
0.00313154
0.00310271
0.00299551
0.00282192
0.0025736
0.00222339
0.00177359
0.00122828
0.000596763
0.000175973
0.00341147
0.00353444
0.00359732
0.00359839
0.0035268
0.00338221
0.00315645
0.00280784
0.0023154
0.00166376
0.00086111
0.000203437
0.00363626
0.00376553
0.0038426
0.00386789
0.00383694
0.0037447
0.00358064
0.00328385
0.00280559
0.00210269
0.00116459
0.00023165
0.003694
0.00382528
0.00391362
0.00395666
0.00395511
0.00391026
0.00381135
0.00360733
0.00321472
0.00252232
0.0014901
0.000259873
0.00362125
0.00375428
0.00384984
0.00390857
0.0039325
0.0039292
0.00388791
0.00377133
0.00350241
0.00288131
0.00178292
0.000290804
0.00346187
0.00358685
0.00368402
0.0037526
0.0037939
0.00382591
0.00383266
0.00381235
0.00367218
0.00318747
0.00203225
0.000323822
0.00325542
0.00336535
0.00345275
0.00351942
0.00357358
0.00363397
0.00367079
0.00372527
0.00372991
0.00341888
0.00231913
0.000358531
0.00301405
0.0031103
0.00319053
0.00325741
0.00331631
0.00339223
0.00345487
0.00354724
0.00365688
0.00357806
0.00266423
0.000396855
0.0028232
0.00289167
0.00295702
0.00301688
0.00307322
0.0031496
0.00324004
0.00333639
0.00349856
0.00362006
0.00306321
0.000445436
3.52803e-05
7.34208e-05
7.84095e-05
7.58845e-05
7.71508e-05
9.43735e-05
0.000163087
0.000197514
0.000210787
0.000218278
0.000222581
0.000224378
5.74475e-05
0.00017138
0.000194167
0.000118158
0.000156432
0.000191812
0.000277806
0.000402644
0.000565244
0.00075474
0.000958347
0.00114079
7.63002e-05
0.00031645
0.00030437
0.000269858
0.000322798
0.000465722
0.000688188
0.000985824
0.00130827
0.00162252
0.00190747
0.00213811
9.29615e-05
0.000391451
0.000411088
0.000422926
0.000574429
0.000834877
0.00117204
0.00154945
0.00192858
0.00228142
0.00258128
0.00281461
0.000106255
0.000491189
0.000557618
0.000621994
0.000847022
0.00117999
0.00156925
0.00196651
0.00235054
0.00270197
0.00300107
0.00323866
0.000115271
0.000555896
0.000680203
0.00081219
0.00108379
0.00144062
0.00183407
0.00222463
0.00259572
0.00293337
0.00322069
0.00345455
0.000121185
0.000613887
0.0007765
0.000965061
0.00124404
0.00159659
0.00197481
0.00234917
0.00270595
0.00302173
0.00329147
0.00351271
0.000127843
0.000686274
0.000901167
0.00110192
0.00139074
0.00171842
0.00205668
0.00238981
0.00271127
0.00299337
0.00323789
0.00344373
0.000137544
0.000759235
0.00105663
0.00133623
0.00161966
0.00189517
0.00216321
0.00242675
0.00268306
0.00292138
0.00312803
0.00330483
0.000152181
0.000865045
0.0012969
0.00163858
0.00190202
0.00210422
0.00227922
0.00245459
0.00262736
0.00280061
0.00296819
0.00312218
0.000175583
0.000854565
0.00144871
0.00180993
0.00204632
0.00218972
0.00233223
0.00244694
0.00255997
0.00267236
0.00278684
0.00290052
0.000316294
0.000811484
0.00151752
0.00193527
0.00214516
0.00229203
0.0024062
0.0024872
0.00255564
0.00261909
0.00268317
0.00275075
0.000223799
0.000222959
0.000220881
0.000217551
0.000212564
0.00020639
0.000198408
0.000188477
0.000175538
0.000159252
0.000141441
6.88774e-05
0.00130165
0.00139897
0.00144782
0.00140669
0.00133228
0.00121829
0.0010677
0.000876226
0.000672091
0.000416578
0.000200418
0.000114197
0.00228604
0.00238577
0.00240846
0.00235543
0.00223716
0.0020671
0.00184347
0.00154698
0.00118977
0.000787145
0.000344274
0.000146283
0.00296934
0.00308143
0.00312357
0.00309486
0.00298794
0.00281504
0.00256737
0.00221818
0.00176972
0.00122589
0.000595812
0.000175826
0.00340304
0.00352583
0.0035886
0.00358967
0.00351816
0.00337408
0.00314903
0.0028014
0.0023104
0.00166054
0.00085972
0.00020327
0.00362782
0.00375677
0.00383364
0.0038588
0.00382781
0.00373582
0.00357238
0.00327646
0.00279966
0.00209875
0.00116282
0.000231464
0.00368576
0.00381667
0.0039047
0.00394745
0.00394576
0.00390112
0.00380269
0.00359952
0.00320818
0.00251776
0.00148796
0.000259668
0.00361363
0.00374614
0.00384131
0.00389973
0.00392351
0.00392017
0.00387903
0.00376309
0.00349552
0.00287633
0.00178059
0.000290582
0.00345523
0.0035795
0.00367611
0.00374422
0.00378533
0.0038172
0.00382379
0.00380405
0.00366482
0.00318197
0.00202974
0.000323587
0.00324938
0.00335866
0.00344536
0.00351179
0.00356569
0.00362586
0.00366274
0.0037173
0.00372251
0.00341334
0.00231652
0.000358287
0.00300849
0.00310441
0.00318419
0.00325075
0.00330936
0.00338492
0.00344782
0.0035399
0.00364968
0.0035721
0.00266149
0.000396613
0.00281895
0.00288687
0.00295182
0.00301135
0.00306738
0.00314337
0.00323389
0.00333001
0.0034921
0.00361413
0.00306024
0.000445195
0.0019227
0.00198329
0.00209688
0.00225737
0.00237077
0.00244068
0.00252274
0.00258984
0.00262627
0.002651
0.00267027
0.00269369
0.00296712
0.00281369
0.00274059
0.00272327
0.0027284
0.00272043
0.00272122
0.00272038
0.00271822
0.00270445
0.0026927
0.00269447
0.00354003
0.00340198
0.00328778
0.0031858
0.0031063
0.00302988
0.00296613
0.00289545
0.00285179
0.00281201
0.00278756
0.00275026
0.00376505
0.00367283
0.00356824
0.00345814
0.00334942
0.00324201
0.0031427
0.00304995
0.00294921
0.0028766
0.00283044
0.0027991
0.0027202
0.00275357
0.00279389
0.00283774
0.002887
0.00295636
0.00306335
0.00315133
0.00332528
0.00360452
0.00396102
0.00197562
0.00269274
0.00270076
0.00271475
0.00274097
0.00278234
0.00284641
0.00295672
0.00304341
0.00320218
0.00347408
0.00407756
0.00323101
0.00270128
0.00269306
0.0026944
0.00271846
0.00276317
0.0028275
0.00292661
0.00304076
0.00318932
0.00337866
0.00383299
0.00371298
0.0027773
0.00275896
0.0027441
0.00277758
0.00283262
0.0029099
0.00301169
0.00314332
0.00329962
0.00344872
0.00373187
0.00381674
0.00192053
0.0019812
0.00209453
0.00225501
0.00236915
0.00243893
0.00252076
0.00258811
0.00262435
0.00264898
0.00266797
0.00269115
0.00296436
0.00281069
0.00273751
0.00272022
0.00272548
0.00271631
0.00272021
0.00271816
0.0027158
0.00270226
0.00269011
0.00269183
0.00353673
0.0033984
0.00328435
0.00318237
0.0031028
0.00302653
0.00296614
0.0028914
0.00284846
0.00280914
0.00278475
0.00274755
0.00376184
0.00366926
0.00356472
0.00345467
0.00334583
0.00323862
0.00313995
0.0030468
0.00294671
0.00287401
0.00282813
0.0027969
0.00271754
0.00275089
0.00279134
0.00283556
0.00288515
0.00295603
0.0030632
0.00315224
0.00332752
0.00360805
0.00396478
0.00197753
0.0026901
0.00269824
0.00271248
0.00273919
0.0027809
0.00284665
0.0029573
0.00304504
0.0032052
0.00347858
0.00408349
0.0032355
0.00269873
0.00269091
0.0026927
0.00271754
0.00276282
0.00282894
0.00292854
0.00304379
0.00319389
0.00338429
0.00384017
0.00371977
0.00277564
0.00275814
0.00274396
0.00277847
0.00283442
0.00291312
0.00301554
0.00314819
0.00330591
0.00345572
0.00373978
0.00382457
0.00192258
0.00198349
0.00209733
0.00225823
0.00237217
0.00244216
0.00252434
0.00259126
0.00262752
0.00265199
0.00267113
0.00269449
0.00296863
0.00281497
0.00274185
0.00272461
0.0027299
0.00272009
0.00272413
0.00272199
0.0027194
0.00270526
0.00269355
0.00269517
0.00354312
0.00340439
0.00328998
0.00318768
0.00310797
0.00303115
0.00296751
0.00289649
0.00285277
0.00281273
0.0027882
0.00275076
0.00376916
0.003676
0.00357087
0.00346031
0.00335094
0.00324306
0.00314351
0.00305057
0.00294953
0.00287702
0.00283081
0.00279951
0.00272102
0.00275454
0.00279511
0.00283927
0.00288881
0.00295892
0.00306593
0.00315444
0.00332905
0.00360885
0.00396505
0.00197742
0.00269333
0.00270139
0.0027155
0.00274198
0.00278358
0.00284831
0.00295872
0.00304586
0.00320524
0.00347789
0.00408224
0.00323406
0.00270162
0.00269338
0.00269488
0.00271922
0.00276417
0.00282905
0.00292836
0.00304295
0.00319198
0.00338187
0.00383727
0.00371682
0.00277762
0.00275914
0.00274466
0.00277845
0.00283377
0.00291144
0.00301346
0.00314542
0.00330219
0.00345165
0.00373553
0.00382046
0.00192206
0.0019828
0.00209615
0.00225667
0.00237054
0.0024403
0.00252202
0.00258915
0.00262528
0.00264966
0.0026685
0.00269151
0.00296702
0.00281315
0.00273983
0.00272242
0.00272762
0.00271976
0.00272037
0.00271941
0.00271714
0.00270318
0.00269101
0.00269252
0.00354015
0.00340148
0.00328719
0.00318494
0.00310524
0.0030288
0.00296498
0.00289421
0.00285035
0.0028105
0.00278592
0.00274846
0.00376534
0.00367239
0.00356752
0.00345719
0.00334811
0.00324059
0.00314123
0.00304841
0.00294781
0.002875
0.00282882
0.00279741
0.00271771
0.00275082
0.00279099
0.00283485
0.00288413
0.00295399
0.00306099
0.00314928
0.00332366
0.00360351
0.00396117
0.00197629
0.00269054
0.00269839
0.00271232
0.00273856
0.0027799
0.00284453
0.00295492
0.0030419
0.00320111
0.00347353
0.00407796
0.00323236
0.00269926
0.002691
0.00269233
0.00271655
0.00276133
0.00282629
0.00292552
0.00304001
0.00318915
0.00337883
0.00383365
0.00371451
0.00277566
0.00275738
0.00274263
0.00277638
0.00283166
0.00290944
0.00301147
0.00314353
0.00330049
0.00344985
0.00373321
0.00381805
0.00373083
0.00362701
0.00350806
0.00338217
0.00325545
0.00312966
0.00302134
0.00293794
0.00285893
0.00280245
0.00278119
0.00279329
0.00368373
0.00357131
0.00343932
0.00329736
0.00315327
0.00301488
0.00291114
0.00282738
0.00275355
0.0027013
0.00268603
0.00270418
0.00362749
0.00351111
0.00336816
0.00321077
0.00305252
0.00291342
0.00279665
0.00269002
0.00258855
0.00249999
0.00242391
0.00234842
0.00356394
0.00345012
0.00329837
0.0031311
0.00296903
0.0028231
0.00267541
0.00251503
0.00234071
0.00212771
0.00188456
0.00158274
0.00284509
0.00290221
0.00292917
0.00300144
0.00310119
0.00322226
0.00335247
0.00348237
0.00360075
0.00370345
0.00379752
0.00380008
0.00279649
0.0029877
0.0030373
0.00313151
0.00326159
0.00340581
0.00353522
0.0036453
0.00372694
0.00378515
0.00380053
0.00375862
0.00240986
0.00293997
0.00307742
0.00321669
0.00337404
0.00350865
0.00362558
0.00370786
0.00375879
0.00378212
0.00376403
0.00370822
0.00145536
0.00265817
0.00302591
0.00324726
0.00340529
0.00353859
0.00363291
0.00369375
0.00372598
0.00373093
0.00370349
0.00364482
0.00372726
0.00362334
0.00350459
0.00337885
0.00325226
0.00312662
0.00301842
0.0029353
0.00285704
0.00280138
0.00278084
0.00279312
0.00368016
0.00356801
0.00343633
0.0032946
0.00315069
0.00301197
0.0029084
0.00282505
0.00275061
0.00270225
0.00268887
0.00270604
0.00362422
0.00350847
0.0033659
0.00320871
0.00305052
0.00291083
0.00279428
0.00268853
0.00258795
0.00250102
0.00242621
0.00235011
0.00356127
0.00344828
0.00329695
0.00312992
0.00296744
0.002821
0.00267351
0.00251407
0.00234058
0.00212855
0.0018856
0.00158397
0.0028457
0.00290394
0.00293187
0.0030052
0.00310588
0.00322787
0.00335859
0.00348901
0.00360795
0.00371099
0.00380515
0.00380741
0.00279846
0.00299099
0.00304166
0.00313686
0.00326775
0.00341261
0.00354239
0.0036527
0.00373448
0.00379268
0.00380768
0.00376539
0.00241197
0.00294378
0.00308244
0.00322266
0.00338081
0.00351605
0.00363335
0.0037157
0.00376645
0.00378945
0.00377066
0.00371408
0.00145695
0.00266159
0.00303087
0.0032533
0.00341241
0.00354642
0.00364113
0.00370191
0.00373367
0.00373791
0.00370955
0.00364999
0.003734
0.0036293
0.00350978
0.00338336
0.00325617
0.00313003
0.00302176
0.00293841
0.00285894
0.00280272
0.00278154
0.00279374
0.00368616
0.00357294
0.00344038
0.00329799
0.00315353
0.00301511
0.00291155
0.00282721
0.00275161
0.00270179
0.0026864
0.00270468
0.00362945
0.0035124
0.00336885
0.00321123
0.00305278
0.00291365
0.00279686
0.00269005
0.00258844
0.00250027
0.00242422
0.00234889
0.00356562
0.00345122
0.003299
0.00313161
0.00296947
0.00282334
0.00267559
0.00251514
0.00234085
0.00212791
0.0018847
0.00158312
0.00284561
0.00290291
0.00293028
0.00300282
0.0031028
0.0032241
0.00335447
0.00348458
0.00360322
0.00370621
0.00380048
0.00380293
0.00279712
0.00298854
0.00303861
0.00313309
0.00326334
0.00340769
0.00353714
0.0036473
0.00372905
0.00378739
0.00380271
0.0037606
0.0024105
0.00294073
0.00307874
0.00321829
0.00337575
0.00351039
0.0036273
0.00370952
0.00376042
0.00378373
0.00376543
0.00370929
0.0014559
0.00265874
0.00302716
0.00324874
0.00340692
0.00354017
0.00363437
0.00369506
0.00372714
0.00373191
0.00370419
0.00364516
0.00372985
0.00362561
0.00350656
0.00338055
0.00325373
0.00312791
0.00301959
0.00293633
0.00285736
0.00280113
0.00278004
0.002792
0.00368182
0.00356934
0.00343738
0.00329544
0.00315136
0.00301286
0.00290935
0.0028255
0.00275028
0.00270079
0.00268625
0.0027035
0.00362501
0.00350886
0.00336606
0.00320878
0.00305058
0.00291134
0.00279488
0.00268859
0.00258734
0.00249951
0.00242393
0.00234809
0.00356126
0.00344784
0.00329635
0.00312926
0.00296711
0.00282114
0.00267376
0.00251386
0.00233994
0.00212738
0.00188461
0.00158276
0.00284397
0.00290127
0.00292851
0.00300118
0.00310138
0.003223
0.00335371
0.00348406
0.0036028
0.00370561
0.00379976
0.00380215
0.00279582
0.00298712
0.00303703
0.00313176
0.0032625
0.00340738
0.00353756
0.00364811
0.00372994
0.00378801
0.0038033
0.00376137
0.0024097
0.0029396
0.00307736
0.00321732
0.00337563
0.00351112
0.00362891
0.00371166
0.00376264
0.00378558
0.00376698
0.00371173
0.00145552
0.00265799
0.00302599
0.00324819
0.00340752
0.00354186
0.00363706
0.00369833
0.00373051
0.00373505
0.00370706
0.00364811
0.00349798
0.00339227
0.00323606
0.0030616
0.00290323
0.00273463
0.00253566
0.00230525
0.00202296
0.00163487
0.00100674
0.000319265
0.00342956
0.00333856
0.00318554
0.00300898
0.00285232
0.00265768
0.00241171
0.00211442
0.00174763
0.00126031
0.000571764
0.000167242
0.00335567
0.00328595
0.00314498
0.00297666
0.00283479
0.00261599
0.00233294
0.00198922
0.00158165
0.0010973
0.000488763
0.000146716
0.00327162
0.00322622
0.00310754
0.00296081
0.00283884
0.00260524
0.00230756
0.00194376
0.00153313
0.00113541
0.00059528
0.000152827
0.0031675
0.00314966
0.00306379
0.00294756
0.00284879
0.00261835
0.00232293
0.00196209
0.00157325
0.00124
0.000738211
0.000161379
0.0030305
0.00304202
0.00299403
0.0029098
0.00283454
0.00262686
0.00234953
0.00200659
0.0016408
0.00129281
0.000849141
0.000168627
0.00284419
0.00288434
0.00287397
0.00282282
0.00277234
0.00259808
0.00234857
0.00202939
0.00167389
0.00129578
0.00084903
0.000175327
0.00258628
0.00265178
0.00267502
0.00265565
0.00263007
0.00249299
0.00227649
0.00198365
0.00163221
0.00123587
0.000790751
0.00017818
0.00222415
0.00230788
0.002357
0.00236461
0.00236157
0.00226083
0.00208141
0.00182244
0.00148371
0.0010955
0.000679794
0.000175334
0.00170764
0.00179461
0.00185506
0.001882
0.00189318
0.00182558
0.00168984
0.0014895
0.00119009
0.000851077
0.000499315
0.000166063
0.000965054
0.00102359
0.00107135
0.00110253
0.00111588
0.00108083
0.00100586
0.000900012
0.000702455
0.000474535
0.000254129
0.000147031
0.000108238
0.000113569
0.000118068
0.000122796
0.00012698
0.000127636
0.000124906
0.000119275
0.000109707
9.45163e-05
7.49585e-05
4.78948e-05
0.000344193
0.00214025
0.00288785
0.00319147
0.00337343
0.0034925
0.00357148
0.0036216
0.00364705
0.00364815
0.00362259
0.00357058
0.000288359
0.00189821
0.002731
0.00308579
0.00327543
0.00338491
0.0034578
0.00350654
0.00353426
0.00354105
0.00352572
0.00348775
0.000261969
0.00173331
0.0025656
0.00294311
0.00312531
0.00323067
0.00330454
0.00335834
0.00339438
0.00341307
0.0034137
0.00339496
0.000244131
0.00159377
0.00239194
0.00276205
0.00293517
0.00303982
0.00311868
0.00318124
0.00322924
0.00326348
0.00328359
0.00328751
0.000229902
0.00145724
0.00220492
0.00254943
0.00271222
0.00281706
0.00290231
0.00297513
0.00303672
0.00308815
0.00312923
0.00315741
0.000216875
0.00131377
0.00199874
0.00230949
0.00245908
0.00256285
0.00265381
0.00273653
0.00281151
0.00287987
0.0029416
0.00299382
0.000203425
0.00115461
0.00177044
0.00204237
0.00217458
0.00227436
0.00236854
0.00245896
0.00254528
0.00262836
0.00270838
0.00278243
0.000190196
0.000962936
0.00151738
0.00174453
0.00185388
0.00194547
0.00203868
0.00213252
0.0022259
0.00231909
0.0024126
0.00250373
0.000175684
0.000753267
0.00123681
0.00140701
0.00148713
0.00156551
0.00165174
0.00174213
0.00183548
0.00193089
0.00202954
0.00212917
0.000158398
0.000537702
0.000914091
0.00100641
0.00105268
0.0011139
0.00118334
0.00125808
0.00134045
0.00142819
0.00152101
0.00161588
0.000137387
0.000314175
0.000499897
0.00051538
0.000528605
0.000564124
0.000610733
0.00066003
0.000715732
0.000774629
0.000838263
0.000903329
3.59151e-05
4.267e-05
5.42457e-05
6.01352e-05
6.34012e-05
6.65996e-05
7.1601e-05
7.78723e-05
8.40897e-05
9.01866e-05
9.62909e-05
0.000102412
0.00349597
0.00339119
0.00323538
0.00306107
0.00290202
0.0027329
0.00253403
0.00230455
0.00202285
0.00163529
0.00100706
0.000319491
0.00342821
0.00333818
0.00318548
0.0030088
0.00285129
0.00265639
0.0024107
0.0021139
0.00174743
0.00126027
0.000571786
0.00016732
0.00335486
0.0032861
0.00314544
0.00297675
0.00283422
0.00261526
0.00233235
0.0019889
0.0015815
0.00109724
0.000488814
0.000146767
0.00327122
0.00322676
0.0031083
0.00296121
0.0028388
0.00260502
0.00230739
0.00194371
0.00153315
0.00113556
0.000595438
0.000152881
0.00316736
0.00315041
0.00306471
0.00294828
0.00284922
0.00261859
0.00232315
0.00196235
0.00157353
0.00124034
0.000738501
0.000161437
0.00303051
0.00304286
0.00299505
0.00291072
0.00283527
0.00262744
0.00235005
0.0020071
0.00164129
0.00129322
0.000849461
0.000168687
0.00284424
0.00288516
0.00287497
0.00282381
0.00277322
0.00259885
0.00234927
0.00203004
0.00167447
0.00129623
0.00084934
0.000175389
0.00258633
0.00265251
0.00267594
0.0026566
0.00263097
0.00249382
0.00227724
0.00198433
0.00163278
0.0012363
0.000791041
0.000178242
0.00222415
0.0023085
0.00235778
0.00236545
0.00236239
0.0022616
0.00208211
0.00182306
0.00148421
0.00109586
0.00068003
0.000175392
0.00170764
0.00179508
0.00185567
0.00188266
0.00189384
0.0018262
0.00169041
0.00149
0.00119045
0.000851343
0.000499479
0.000166116
0.000965177
0.00102387
0.00107168
0.00110289
0.00111625
0.00108118
0.00100618
0.000900292
0.000702627
0.000474669
0.000254203
0.000147073
0.000108241
0.000113592
0.000118098
0.000122835
0.000127023
0.000127679
0.000124948
0.000119314
0.000109743
9.45462e-05
7.49798e-05
4.79063e-05
0.000344631
0.0021431
0.00289253
0.00319731
0.00338069
0.00350065
0.00358001
0.00362993
0.00365468
0.00365481
0.00362815
0.00357506
0.000288766
0.00190088
0.00273557
0.00309176
0.00328278
0.0033932
0.00346645
0.00351487
0.00354173
0.00354737
0.00353077
0.00349161
0.000262351
0.00173578
0.00256999
0.00294901
0.00313259
0.00323891
0.00331308
0.00336648
0.00340157
0.00341898
0.00341827
0.00339823
0.00024449
0.00159608
0.00239608
0.00276774
0.00294222
0.00304779
0.00312692
0.00318903
0.00323604
0.00326896
0.00328767
0.00329029
0.000230238
0.00145936
0.00220879
0.0025548
0.00271888
0.00282458
0.00291006
0.00298244
0.00304303
0.00309314
0.00313287
0.00315974
0.000217191
0.0013157
0.00200228
0.00231444
0.00246522
0.00256977
0.00266092
0.00274321
0.00281724
0.00288435
0.00294476
0.00299578
0.000203719
0.00115629
0.00177361
0.00204682
0.00218007
0.00228053
0.00237486
0.00246489
0.00255034
0.00263226
0.00271109
0.00278403
0.000190474
0.000964293
0.00152015
0.0017484
0.0018586
0.00195074
0.00204407
0.00213755
0.00223017
0.00232234
0.00241481
0.00250497
0.00017594
0.000754321
0.00123912
0.0014102
0.00149094
0.00156971
0.001656
0.0017461
0.00183883
0.0019334
0.0020312
0.00213005
0.000158628
0.00053846
0.000915873
0.00100876
0.00105535
0.00111675
0.00118623
0.00126074
0.00134273
0.00142986
0.00152206
0.00161636
0.000137584
0.000314639
0.000500985
0.00051668
0.000530022
0.000565571
0.00061218
0.00066129
0.000716771
0.000775357
0.000838662
0.000903448
3.59638e-05
4.27254e-05
5.43349e-05
6.02504e-05
6.35394e-05
6.67404e-05
7.17141e-05
7.79577e-05
8.41472e-05
9.02135e-05
9.6288e-05
0.000102384
0.00349948
0.00339332
0.0032368
0.0030623
0.00290379
0.00273502
0.00253602
0.00230549
0.00202319
0.00163495
0.00100673
0.000319296
0.00343096
0.00333965
0.00318642
0.0030099
0.00285314
0.0026583
0.00241223
0.00211492
0.00174808
0.00126071
0.000572003
0.000167277
0.003357
0.0032871
0.00314595
0.0029778
0.00283582
0.00261681
0.00233377
0.00198999
0.00158239
0.00109802
0.000489191
0.000146755
0.00327284
0.00322742
0.0031086
0.0029621
0.00283994
0.00260622
0.0023086
0.00194478
0.00153413
0.00113637
0.000595862
0.000152868
0.0031686
0.00315084
0.00306482
0.00294882
0.00284988
0.00261941
0.00232406
0.00196323
0.00157436
0.00124091
0.000738865
0.000161419
0.00303146
0.0030431
0.00299495
0.0029109
0.00283549
0.00262785
0.00235059
0.00200769
0.00164183
0.00129367
0.000849787
0.000168666
0.00284494
0.00288525
0.00287473
0.00282367
0.00277308
0.00259887
0.00234943
0.00203032
0.00167477
0.00129654
0.00084961
0.000175365
0.00258679
0.00265246
0.00267555
0.00265622
0.00263053
0.00249353
0.00227708
0.00198435
0.00163295
0.00123651
0.000791302
0.00017821
0.00222438
0.00230831
0.00235728
0.00236493
0.00236172
0.00226112
0.00208167
0.00182291
0.0014842
0.001096
0.000680205
0.000175361
0.00170765
0.00179479
0.00185514
0.00188205
0.0018931
0.00182559
0.00168988
0.0014897
0.00119037
0.000851381
0.000499594
0.000166083
0.000965043
0.00102357
0.00107128
0.0011024
0.00111565
0.00108065
0.00100574
0.000899967
0.000702586
0.000474657
0.000254251
0.000147042