/*--------------------------------*- C++ -*----------------------------------*\
| =========                 |                                                 |
| \\      /  F ield         | OpenFOAM: The Open Source CFD Toolbox           |
|  \\    /   O peration     | Version:  4.0                                   |
|   \\  /    A nd           | Web:      www.OpenFOAM.org                      |
|    \\/     M anipulation  |                                                 |
\*---------------------------------------------------------------------------*/
FoamFile
{
    version     2.0;
    format      ascii;
    class       volScalarField;
    location    "200";
    object      p;
}
// * * * * * * * * * * * * * * * * * * * * * * * * * * * * * * * * * * * * * //

dimensions      [0 2 -2 0 0 0 0];

internalField   nonuniform List<scalar> 
3072
(
0.000413795
-0.187442
-0.365871
-0.442514
-0.460218
-0.411438
-0.231996
-0.054598
-0.449857
-1.13948
-1.81139
-2.29054
0.634498
0.344278
0.213376
0.213604
0.39122
0.632949
1.3499
2.08738
2.32383
2.41914
2.39842
2.33533
1.43507
1.12012
1.08114
1.25789
1.69
2.14165
2.56859
2.93362
3.09961
3.19593
3.1844
3.1641
2.53353
2.34288
2.46289
2.834
3.31128
3.73548
4.08798
4.33642
4.49949
4.63763
4.726
4.78587
3.66759
3.62559
3.87708
4.314
4.77076
5.16262
5.47713
5.71275
5.86766
5.9764
6.04445
6.08643
4.75976
4.85139
5.19177
5.66752
6.12818
6.50421
6.77847
6.97111
7.09791
7.18112
7.23038
7.25743
5.79999
6.03544
6.44665
6.96199
7.43562
7.77304
8.0004
8.14449
8.23001
8.27803
8.30023
8.30682
6.85071
7.22434
7.69053
8.22223
8.66505
8.95657
9.12815
9.21715
9.25464
9.26333
9.25693
9.24384
7.93251
8.46714
8.94874
9.44756
9.82407
10.0418
10.1427
10.1711
10.1598
10.1313
10.1001
10.0726
9.04868
9.70445
10.1942
10.6243
10.9011
11.0175
11.0327
10.9964
10.9389
10.8798
10.8317
10.7973
10.1899
11.0541
11.4512
11.703
11.8465
11.8447
11.7718
11.6755
11.581
11.503
11.4513
11.4217
11.0783
12.3945
12.6094
12.5828
12.5618
12.451
12.3081
12.1719
12.0634
11.9892
11.9565
11.9509
-2.5521
-2.55711
-2.33242
-1.88266
-1.25106
-0.458323
0.437296
1.35739
2.20405
2.9628
3.33381
3.10079
2.28193
2.27756
2.33023
2.44845
2.6272
2.86254
3.14419
3.42272
3.6873
4.11305
4.14462
3.28926
3.15447
3.18826
3.27907
3.42304
3.59873
3.79419
3.98613
4.12969
4.19254
4.26131
4.17493
2.93154
4.83078
4.87509
4.92335
4.97647
5.02942
5.07479
5.09555
5.05813
4.91781
4.71253
4.45325
2.85503
6.11271
6.13102
6.14392
6.15233
6.15195
6.13214
6.08305
5.97886
5.77371
5.45934
5.09961
3.33304
7.27063
7.2746
7.27068
7.25899
7.23645
7.19354
7.1216
7.00121
6.79251
6.46693
6.09042
4.33241
8.30454
8.29691
8.28481
8.26847
8.24568
8.21118
8.15646
8.0655
7.91027
7.65544
7.36049
5.82246
9.22935
9.2154
9.20297
9.19274
9.18423
9.176
9.16372
9.13778
9.08451
8.97751
8.87676
7.76009
10.052
10.0374
10.0298
10.0307
10.0418
10.0667
10.1067
10.1616
10.2331
10.3178
10.5021
10.0447
10.778
10.7687
10.7694
10.7826
10.8124
10.8672
10.9562
11.0911
11.2877
11.5786
12.1718
12.5728
11.4139
11.4161
11.4278
11.4523
11.4954
11.569
11.6901
11.8843
12.1765
12.6476
13.7136
15.2429
11.9714
11.9929
12.0179
12.0506
12.0983
12.1752
12.3021
12.5141
12.8331
13.3749
14.5935
17.1495
0.00135682
-0.185454
-0.36291
-0.439289
-0.455713
-0.40897
-0.231558
-0.0511672
-0.440087
-1.12925
-1.80044
-2.28098
0.634771
0.344881
0.214122
0.214026
0.391039
0.633752
1.34305
2.08445
2.32367
2.42014
2.40052
2.33733
1.4326
1.11622
1.07631
1.25033
1.68156
2.13616
2.56377
2.93134
3.09883
3.19649
3.18585
3.16568
2.52882
2.33594
2.45365
2.82315
3.30187
3.72779
4.08288
4.33344
4.49748
4.63628
4.72522
4.78555
3.66259
3.61814
3.86726
4.30443
4.76369
5.15642
5.47231
5.70938
5.86545
5.97481
6.04345
6.08574
4.75568
4.84429
5.18317
5.6597
6.12115
6.49927
6.77468
6.96845
7.09588
7.17977
7.22931
7.25679
5.79773
6.02958
6.43949
6.95536
7.43004
7.76901
7.99753
8.14234
8.22852
8.27691
8.2995
8.30628
6.84928
7.21964
7.68469
8.21666
8.66082
8.95364
9.12605
9.21565
9.25358
9.2626
9.25644
9.24355
7.93135
8.46329
8.94399
9.44318
9.82087
10.0396
10.1412
10.1701
10.1592
10.1309
10.0999
10.0725
9.0475
9.70117
10.1904
10.6209
10.8987
11.016
11.0317
10.9958
10.9386
10.8797
10.8317
10.7975
10.1886
11.0511
11.4477
11.7003
11.8447
11.8437
11.7713
11.6753
11.581
11.5031
11.4516
11.422
11.0772
12.3913
12.6065
12.5808
12.5606
12.4505
12.308
12.1721
12.0637
11.9895
11.957
11.9515
-2.5434
-2.55004
-2.32646
-1.87817
-1.24774
-0.456365
0.438068
1.35677
2.20202
2.95949
3.33066
3.09837
2.2839
2.27924
2.33152
2.44933
2.62763
2.86249
3.14363
3.42162
3.68571
4.11098
4.1424
3.28717
3.15602
3.18954
3.28002
3.4237
3.59904
3.79414
3.98569
4.12889
4.19151
4.26009
4.17324
2.9304
4.83071
4.87511
4.92339
4.97646
5.02931
5.07453
5.09514
5.05756
4.91714
4.71185
4.45244
2.85497
6.11235
6.13078
6.1438
6.15219
6.15181
6.13191
6.08276
5.97847
5.77329
5.45898
5.09919
3.33337
7.27011
7.27433
7.27044
7.25882
7.23625
7.19333
7.12128
7.00087
6.79214
6.4666
6.09016
4.33277
8.30421
8.29667
8.28466
8.26833
8.24553
8.21093
8.15616
8.06508
7.90978
7.65516
7.36008
5.82253
9.22918
9.21534
9.20293
9.19272
9.18411
9.17578
9.16332
9.13722
9.08387
8.97672
8.87604
7.75945
10.052
10.0376
10.03
10.0308
10.0418
10.0665
10.1063
10.1608
10.232
10.3169
10.5009
10.0433
10.7783
10.7691
10.7697
10.7828
10.8125
10.8671
10.9558
11.0903
11.2865
11.5771
12.1702
12.5707
11.4144
11.4166
11.4283
11.4526
11.4956
11.5689
11.6897
11.8834
12.1751
12.6458
13.7116
15.2402
11.972
11.9935
12.0185
12.0511
12.0986
12.1753
12.3018
12.5134
12.8318
13.3729
14.5913
17.1473
-0.000918829
-0.188404
-0.366339
-0.442772
-0.460134
-0.411824
-0.232614
-0.0544107
-0.449038
-1.13976
-1.8127
-2.29314
0.632868
0.342975
0.212342
0.212466
0.389921
0.632352
1.34733
2.0859
2.32285
2.41798
2.39694
2.33334
1.43218
1.11674
1.07764
1.25372
1.6857
2.13864
2.56603
2.93183
3.09798
3.19425
3.18253
3.16193
2.52968
2.33803
2.45744
2.82862
3.3069
3.73184
4.08516
4.33409
4.49727
4.63547
4.7238
4.78356
3.66392
3.62078
3.87158
4.30914
4.76715
5.15951
5.47446
5.71048
5.86559
5.97439
6.04239
6.08426
4.75678
4.84696
5.18695
5.66335
6.12473
6.50169
6.7764
6.96931
7.09619
7.17937
7.22852
7.25542
5.79805
6.03172
6.4426
6.9585
7.43299
7.77117
7.99892
8.14315
8.22868
8.27658
8.29861
8.30501
6.84928
7.22123
7.68721
8.21951
8.66326
8.95539
9.12721
9.21625
9.25364
9.26216
9.25554
9.24221
7.93138
8.46453
8.94608
9.44553
9.82285
10.041
10.1421
10.1705
10.1591
10.1304
10.0989
10.0711
9.04757
9.70224
10.1921
10.6228
10.9003
11.017
11.0323
10.996
10.9383
10.8789
10.8306
10.7959
10.1888
11.0521
11.4494
11.7019
11.8459
11.8444
11.7716
11.6752
11.5805
11.5023
11.4503
11.4204
11.0774
12.3927
12.6079
12.5821
12.5616
12.451
12.3081
12.1719
12.0632
11.9887
11.9557
11.9498
-2.55554
-2.56119
-2.33664
-1.88673
-1.25466
-0.461348
0.434937
1.35544
2.20219
2.96101
3.33365
3.10182
2.2796
2.27504
2.32765
2.44596
2.62493
2.86061
3.14262
3.4215
3.68647
4.11293
4.14503
3.28882
3.15203
3.18562
3.27635
3.42038
3.59622
3.7919
3.98411
4.12793
4.19108
4.26028
4.17399
2.93021
4.82834
4.87255
4.92078
4.97392
5.02695
5.07247
5.09338
5.05611
4.91592
4.71075
4.45149
2.85279
6.1104
6.12861
6.14144
6.14983
6.14947
6.12972
6.08073
5.97664
5.77158
5.45727
5.09741
3.33043
7.26848
7.27232
7.26831
7.25655
7.23399
7.19108
7.11921
6.99888
6.79027
6.46483
6.0883
4.32988
8.30255
8.29477
8.28254
8.26611
8.24326
8.20873
8.15404
8.06314
7.90803
7.65339
7.35858
5.82031
9.22751
9.21337
9.20079
9.19045
9.18185
9.17357
9.1613
9.13542
9.08229
8.97558
8.87516
7.75844
10.0503
10.0355
10.0277
10.0284
10.0394
10.0643
10.1043
10.1592
10.2309
10.316
10.5009
10.0438
10.7764
10.7669
10.7674
10.7804
10.8101
10.8649
10.9538
11.0887
11.2855
11.5768
12.1709
12.5725
11.4124
11.4144
11.4259
11.4502
11.4932
11.5666
11.6877
11.8818
12.1742
12.6457
13.7129
15.2435
11.97
11.9912
12.0161
12.0486
12.0962
12.1729
12.2997
12.5118
12.8307
13.3728
14.5926
17.151
-0.000118415
-0.187136
-0.364769
-0.441187
-0.457784
-0.410805
-0.233105
-0.05301
-0.442898
-1.13257
-1.8043
-2.28504
0.633281
0.34328
0.212466
0.212413
0.389516
0.632027
1.34248
2.08366
2.32254
2.41877
2.39885
2.33547
1.43145
1.11514
1.07528
1.24968
1.68105
2.13528
2.56283
2.93008
3.09727
3.19464
3.18374
3.16341
2.52798
2.33528
2.45323
2.82299
3.30158
3.72732
4.08208
4.33232
4.49616
4.63481
4.72358
4.78377
3.66183
3.61761
3.86702
4.30419
4.76314
5.15583
5.47154
5.70838
5.86425
5.97344
6.04193
6.08408
4.75486
4.84376
5.18284
5.65936
6.12083
6.49873
6.77394
6.96751
7.09474
7.17846
7.22784
7.25517
5.79677
6.02896
6.43911
6.95503
7.42978
7.76855
7.99686
8.14146
8.22743
8.27563
8.29803
8.30465
6.84828
7.21895
7.68428
8.21645
8.66062
8.95324
9.12543
9.2148
9.25252
9.26133
9.25497
9.24192
7.93036
8.46262
8.94362
9.44304
9.82069
10.0392
10.1406
10.1692
10.1581
10.1296
10.0984
10.0709
9.04653
9.70051
10.1901
10.6207
10.8985
11.0155
11.031
10.9949
10.9374
10.8783
10.8302
10.7957
10.1875
11.0505
11.4473
11.7
11.8443
11.843
11.7704
11.6742
11.5797
11.5016
11.4499
11.4203
11.0758
12.3908
12.606
12.5802
12.5599
12.4495
12.3068
12.1707
12.0622
11.9879
11.9552
11.9496
-2.54765
-2.55427
-2.33066
-1.88219
-1.25151
-0.459725
0.435253
1.35474
2.2009
2.95928
3.33017
3.09707
2.28183
2.27701
2.32916
2.4469
2.6252
2.86016
3.1415
3.41976
3.68413
4.10974
4.14123
3.28598
3.15363
3.18709
3.27757
3.42129
3.5967
3.79191
3.98361
4.12696
4.18969
4.25841
4.17197
2.92872
4.82881
4.87312
4.92133
4.97437
5.0272
5.07245
5.09309
5.05555
4.91516
4.70988
4.45063
2.8527
6.11056
6.12887
6.14182
6.15017
6.14976
6.12985
6.08071
5.97642
5.77123
5.45685
5.09713
3.33078
7.26837
7.27248
7.26852
7.25685
7.23426
7.19131
7.11928
6.99886
6.79008
6.46441
6.08795
4.33004
8.30248
8.29485
8.28277
8.26638
8.24357
8.20898
8.15422
8.06314
7.90779
7.65299
7.35779
5.81981
9.22744
9.2135
9.20103
9.19079
9.18218
9.17389
9.16147
9.13541
9.08205
8.97474
8.87388
7.75695
10.0502
10.0357
10.028
10.0288
10.0399
10.0647
10.1045
10.1592
10.2304
10.3151
10.4989
10.0412
10.7764
10.7671
10.7678
10.7808
10.8106
10.8653
10.9541
11.0888
11.2852
11.5757
12.1685
12.5689
11.4125
11.4146
11.4263
11.4507
11.4937
11.5671
11.6881
11.882
12.1739
12.6448
13.7103
15.2388
11.9701
11.9915
12.0165
12.0491
12.0967
12.1735
12.3001
12.512
12.8307
13.3722
14.5903
17.1462
13.3306
13.4539
13.2784
13.0868
12.9294
12.7587
12.5942
12.4577
12.3682
12.3284
12.3445
12.3877
13.4514
13.2216
13.1605
13.0422
12.9109
12.7699
12.6415
12.5455
12.5072
12.5325
12.6297
12.7487
13.4231
13.2342
13.117
12.9631
12.811
12.6697
12.5608
12.5064
12.5318
12.6427
12.8453
13.0638
13.3401
13.1363
12.953
12.7605
12.5836
12.4363
12.3433
12.3359
12.4429
12.6734
13.0341
13.4196
12.459
12.5094
12.5507
12.5886
12.6315
12.6964
12.8028
12.9903
13.256
13.6586
14.116
15.3303
12.8968
12.9829
13.0437
13.0836
13.1119
13.1484
13.2112
13.3437
13.5343
13.8292
14.0149
14.3197
13.3162
13.4329
13.5056
13.5399
13.5485
13.5401
13.5385
13.5881
13.6788
13.8569
13.918
13.9336
13.8218
13.9996
14.0865
14.076
14.0278
13.955
13.8603
13.7814
13.7143
13.7267
13.6744
13.649
13.3301
13.4515
13.276
13.0854
12.9287
12.7585
12.5944
12.458
12.3686
12.3288
12.345
12.3883
13.4519
13.2204
13.1593
13.0414
12.9105
12.7697
12.6416
12.5457
12.5075
12.5329
12.6301
12.7492
13.4242
13.2342
13.1164
12.9627
12.8108
12.6696
12.5607
12.5064
12.5318
12.6428
12.8456
13.0643
13.3411
13.1371
12.9534
12.7607
12.5836
12.436
12.3429
12.3354
12.4424
12.6731
13.0342
13.42
12.4596
12.5101
12.5514
12.5892
12.6319
12.6966
12.8028
12.9899
13.2551
13.657
14.114
15.3291
12.8974
12.9836
13.0443
13.0843
13.1125
13.1489
13.2115
13.3437
13.5339
13.8284
14.0136
14.3192
13.3167
13.4335
13.5063
13.5406
13.5492
13.5408
13.539
13.5886
13.6791
13.857
13.9177
13.9334
13.8222
13.9999
14.087
14.0766
14.0283
13.9556
13.861
13.7822
13.7152
13.7277
13.6752
13.6496
13.3303
13.4529
13.2777
13.0868
12.9297
12.7592
12.5947
12.4581
12.3683
12.3281
12.3439
12.3867
13.4524
13.2218
13.1608
13.0429
12.9118
12.7709
12.6425
12.5463
12.5077
12.5327
12.6293
12.7479
13.4247
13.2352
13.1177
12.9642
12.8123
12.6711
12.5621
12.5077
12.5328
12.6432
12.8452
13.0632
13.3417
13.138
12.9545
12.7622
12.5853
12.438
12.3451
12.3376
12.4444
12.6745
13.0343
13.419
12.4577
12.5078
12.549
12.5868
12.6295
12.6942
12.8005
12.9881
13.2537
13.6564
14.1141
15.3301
12.8956
12.9814
13.0422
13.0819
13.11
13.1465
13.2091
13.3416
13.5322
13.8272
14.0129
14.3185
13.315
13.4316
13.5042
13.5383
13.5468
13.5383
13.5366
13.5862
13.6769
13.8551
13.9161
13.9318
13.8206
13.9984
14.0851
14.0745
14.0263
13.9534
13.8587
13.7797
13.7126
13.725
13.6725
13.6471
13.3295
13.4508
13.2752
13.0844
12.9276
12.7572
12.5929
12.4565
12.3669
12.3271
12.3432
12.3864
13.4507
13.2192
13.158
13.04
12.909
12.7682
12.64
12.5441
12.5058
12.5311
12.6283
12.7474
13.4226
13.2325
13.1147
12.961
12.8091
12.6679
12.559
12.5047
12.5302
12.6412
12.8439
13.0625
13.3391
13.135
12.9513
12.7587
12.5816
12.4342
12.3412
12.3339
12.441
12.6717
13.0325
13.4182
12.4577
12.5081
12.5494
12.5872
12.63
12.6948
12.801
12.9884
13.2539
13.6563
14.1136
15.328
12.8955
12.9817
13.0425
13.0823
13.1105
13.147
13.2096
13.342
13.5325
13.8274
14.0131
14.3178
13.3149
13.4317
13.5044
13.5387
13.5472
13.5388
13.537
13.5866
13.6772
13.8554
13.9166
13.9321
13.8206
13.9985
14.0854
14.0749
14.0265
13.9537
13.859
13.78
13.7129
13.7254
13.6732
13.6482
13.3548
13.1728
12.9854
12.7977
12.6234
12.478
12.3861
12.3779
12.4818
12.7235
13.059
13.443
13.4496
13.2935
13.1331
12.9735
12.8234
12.695
12.606
12.579
12.6455
12.8256
13.0518
13.3168
13.5197
13.3846
13.2466
13.1098
12.9803
12.867
12.7809
12.7456
12.7913
12.8841
13.0502
13.2485
13.5808
13.4633
13.344
13.2251
13.1106
13.0053
12.9172
12.8752
12.8634
12.9123
13.0626
13.1364
13.9216
14.1065
14.2365
14.2537
14.2216
14.1481
14.0412
13.9257
13.8031
13.7236
13.6115
13.5474
13.8328
13.9997
14.1346
14.1636
14.1548
14.1109
14.0435
13.968
13.8826
13.8116
13.7079
13.6161
13.8499
13.9798
14.1082
14.1414
14.1412
14.1123
14.0611
14.0002
13.927
13.8552
13.7581
13.662
14.0195
14.0464
14.1216
14.1483
14.1479
14.1241
14.0812
14.0265
13.9585
13.8864
13.7953
13.7022
13.3557
13.1739
12.9862
12.7982
12.6236
12.4779
12.3858
12.3773
12.4813
12.7232
13.059
13.4433
13.4503
13.2943
13.1337
12.9741
12.8238
12.6951
12.6059
12.5787
12.6453
12.8256
13.052
13.3172
13.5204
13.3855
13.2474
13.1105
12.9808
12.8673
12.781
12.7456
12.7914
12.8844
13.0507
13.249
13.5814
13.4642
13.3448
13.2259
13.1113
13.0058
12.9176
12.8756
12.8637
12.9129
13.0633
13.137
13.9221
14.1071
14.2373
14.2545
14.2224
14.1489
14.0421
13.9267
13.8043
13.7249
13.6126
13.5483
13.8334
14.0003
14.1353
14.1644
14.1557
14.1118
14.0444
13.969
13.8837
13.8128
13.7091
13.617
13.8506
13.9804
14.1089
14.1422
14.142
14.1132
14.062
14.0012
13.928
13.8563
13.7591
13.663
14.0206
14.0471
14.1225
14.1491
14.1487
14.1249
14.0821
14.0274
13.9595
13.8874
13.7963
13.7031
13.3564
13.1747
12.9872
12.7995
12.6253
12.48
12.3882
12.3798
12.4835
12.7248
13.0595
13.4428
13.4512
13.2953
13.1349
12.9755
12.8254
12.697
12.608
12.581
12.6473
12.8269
13.0526
13.317
13.5214
13.3865
13.2485
13.1118
12.9824
12.869
12.7829
12.7476
12.793
12.8855
13.0513
13.2491
13.5823
13.4653
13.3459
13.2271
13.1127
13.0073
12.9193
12.8771
12.8651
12.914
13.064
13.1375
13.9205
14.1053
14.2352
14.2523
14.2202
14.1466
14.0397
13.9241
13.8015
13.722
13.6097
13.5454
13.832
13.9985
14.1332
14.1621
14.1534
14.1094
14.0419
13.9664
13.881
13.81
13.7061
13.6141
13.8491
13.9786
14.1067
14.1399
14.1397
14.1108
14.0595
13.9987
13.9254
13.8535
13.7564
13.6601
14.0186
14.045
14.1202
14.1467
14.1463
14.1225
14.0797
14.0248
13.9569
13.8847
13.7935
13.7004
13.3536
13.1717
12.984
12.796
12.6215
12.476
12.3841
12.3758
12.4799
12.7218
13.0574
13.4416
13.4483
13.2922
13.1316
12.972
12.8217
12.6932
12.6041
12.5772
12.6438
12.8241
13.0504
13.3155
13.5185
13.3835
13.2454
13.1084
12.9788
12.8654
12.7792
12.744
12.7898
12.8828
13.049
13.2472
13.5794
13.4623
13.3428
13.2239
13.1093
13.0039
12.9158
12.8738
12.8621
12.9112
13.0615
13.1352
13.9204
14.1054
14.2354
14.2526
14.2204
14.1469
14.04
13.9244
13.8018
13.7224
13.6102
13.5466
13.8316
13.9985
14.1334
14.1623
14.1535
14.1096
14.0421
13.9667
13.8813
13.8103
13.7067
13.6153
13.8486
13.9786
14.1069
14.1401
14.1399
14.1109
14.0597
13.9988
13.9256
13.8538
13.7567
13.6612
14.0181
14.0451
14.1203
14.1469
14.1465
14.1226
14.0797
14.0249
13.957
13.8848
13.7937
13.7014
13.6363
13.5337
13.43
13.3249
13.2206
13.1167
13.0197
12.9408
12.8849
12.8977
13.0144
12.8392
13.6855
13.5946
13.5026
13.4069
13.3067
13.196
13.082
12.9558
12.8675
12.8272
12.9328
12.8902
13.7276
13.6454
13.5612
13.4703
13.3688
13.2477
13.103
12.9415
12.8214
12.7671
12.8461
12.8709
13.7629
13.6866
13.6067
13.5171
13.4098
13.2736
13.0992
12.9131
12.7721
12.721
12.7819
12.8467
13.7917
13.7192
13.6412
13.5503
13.4343
13.2814
13.0879
12.8835
12.7341
12.6854
12.7436
12.8375
13.815
13.745
13.6673
13.5737
13.4488
13.2824
13.0762
12.8631
12.7142
12.673
12.7416
12.8461
13.8338
13.7657
13.6877
13.5912
13.4593
13.2833
13.0701
12.8553
12.7125
12.6816
12.7634
12.8743
13.8495
13.7832
13.7052
13.6066
13.4702
13.2888
13.0727
12.8601
12.7258
12.7049
12.7997
12.9161
13.8633
13.7996
13.7227
13.6238
13.4857
13.3022
13.0855
12.876
12.7495
12.7361
12.8407
12.9631
13.8776
13.8187
13.7462
13.6503
13.5139
13.3307
13.1131
12.903
12.7796
12.7667
12.8764
13.0082
13.8949
13.8452
13.7829
13.6961
13.5661
13.385
13.1637
12.9448
12.8139
12.7912
12.9047
13.0447
13.9086
13.8664
13.8126
13.7358
13.6172
13.4438
13.2242
13.0043
12.8462
12.816
12.9272
13.0529
14.439
14.21
14.1614
14.1656
14.1596
14.1369
14.0985
14.0476
13.984
13.9137
13.8292
13.7417
14.4267
14.2738
14.191
14.1827
14.1716
14.1494
14.1136
14.0656
14.0055
13.9381
13.8597
13.7783
14.387
14.2716
14.2087
14.1954
14.1827
14.1611
14.1271
14.0812
14.0241
13.9597
13.8867
13.8111
14.3473
14.2573
14.218
14.2042
14.1924
14.1717
14.139
14.0948
14.0401
13.9785
13.9101
13.8393
14.3128
14.2433
14.2222
14.2101
14.2004
14.1808
14.1492
14.1062
14.0535
13.9944
13.9298
13.8631
14.2864
14.2326
14.2237
14.2141
14.2066
14.1882
14.1575
14.1155
14.0644
14.0075
13.9461
13.8827
14.2702
14.2263
14.2243
14.2167
14.211
14.1936
14.1634
14.1223
14.0726
14.0177
13.9593
13.8987
14.2636
14.2257
14.2246
14.2181
14.2133
14.1966
14.1669
14.1264
14.078
14.0252
13.9696
13.9118
14.2643
14.2312
14.2251
14.2176
14.2127
14.1965
14.1671
14.1273
14.0803
14.0298
13.9774
13.9227
14.2697
14.2414
14.2254
14.2138
14.2073
14.1913
14.1621
14.1234
14.0784
14.0312
13.9829
13.9324
14.2782
14.2533
14.2257
14.2067
14.1966
14.1793
14.1501
14.1136
14.0719
14.0288
13.9861
13.9421
14.289
14.263
14.2264
14.202
14.1875
14.1676
14.1394
14.105
14.0658
14.0258
13.9869
13.9487
13.637
13.5348
13.431
13.3259
13.2214
13.1174
13.0203
12.9413
12.8855
12.8984
13.0152
12.8398
13.6862
13.5957
13.5036
13.4079
13.3076
13.1969
13.0827
12.9565
12.8681
12.8279
12.9336
12.8909
13.7284
13.6467
13.5624
13.4714
13.3698
13.2486
13.1037
12.9422
12.822
12.7678
12.8469
12.8716
13.7638
13.6879
13.6079
13.5183
13.4109
13.2745
13.1
12.9137
12.7727
12.7217
12.7826
12.8474
13.7927
13.7206
13.6425
13.5515
13.4353
13.2823
13.0887
12.8842
12.7347
12.6861
12.7443
12.8383
13.8161
13.7464
13.6685
13.5749
13.4499
13.2833
13.0769
12.8637
12.7148
12.6737
12.7424
12.8469
13.835
13.7672
13.689
13.5923
13.4603
13.2842
13.0708
12.8559
12.7131
12.6823
12.7641
12.8751
13.8508
13.7846
13.7064
13.6077
13.4712
13.2896
13.0733
12.8607
12.7264
12.7056
12.8005
12.917
13.8646
13.8009
13.7239
13.6249
13.4866
13.303
13.0862
12.8766
12.7501
12.7369
12.8415
12.9639
13.8789
13.82
13.7474
13.6514
13.5149
13.3315
13.1138
12.9036
12.7802
12.7674
12.8772
13.0091
13.8962
13.8465
13.7841
13.6972
13.5671
13.3858
13.1644
12.9454
12.8146
12.7919
12.9055
13.0455
13.9098
13.8677
13.8138
13.7369
13.6182
13.4447
13.2249
13.005
12.8469
12.8167
12.9281
13.0537
14.4407
14.2111
14.1623
14.1664
14.1604
14.1378
14.0993
14.0485
13.9849
13.9146
13.83
13.7426
14.4283
14.275
14.192
14.1836
14.1725
14.1502
14.1144
14.0664
14.0064
13.939
13.8606
13.7791
14.3884
14.2727
14.2097
14.1963
14.1836
14.162
14.1279
14.082
14.0249
13.9604
13.8874
13.8118
14.3485
14.2584
14.2189
14.2051
14.1932
14.1725
14.1398
14.0955
14.0408
13.9791
13.9107
13.8399
14.3139
14.2443
14.2231
14.211
14.2012
14.1816
14.1499
14.1069
14.0542
13.995
13.9304
13.8636
14.2875
14.2336
14.2247
14.215
14.2074
14.1889
14.1582
14.1162
14.065
14.008
13.9467
13.8831
14.2713
14.2273
14.2252
14.2175
14.2118
14.1943
14.1641
14.1229
14.0731
14.0182
13.9597
13.8991
14.2647
14.2267
14.2256
14.2189
14.214
14.1973
14.1675
14.127
14.0785
14.0257
13.97
13.9121
14.2654
14.2322
14.226
14.2184
14.2135
14.1972
14.1678
14.1279
14.0808
14.0303
13.9778
13.923
14.2708
14.2424
14.2263
14.2146
14.208
14.1919
14.1627
14.124
14.0789
14.0316
13.9833
13.9327
14.2793
14.2544
14.2267
14.2075
14.1973
14.1799
14.1507
14.1141
14.0723
14.0292
13.9864
13.9424
14.2901
14.2641
14.2274
14.2028
14.1882
14.1682
14.1399
14.1055
14.0662
14.0261
13.9871
13.9489
13.6378
13.5356
13.4319
13.3269
13.2226
13.1187
13.0216
12.9426
12.8868
12.8994
13.016
12.8409
13.687
13.5965
13.5045
13.4088
13.3085
13.1979
13.0838
12.9576
12.8693
12.829
12.9344
12.8919
13.7291
13.6473
13.563
13.4721
13.3706
13.2495
13.1047
12.9433
12.8232
12.7689
12.8478
12.8726
13.7644
13.6885
13.6085
13.5189
13.4115
13.2752
13.101
12.9149
12.774
12.7229
12.7836
12.8484
13.7932
13.7211
13.6429
13.552
13.4359
13.283
13.0896
12.8854
12.736
12.6873
12.7454
12.8392
13.8165
13.7468
13.6689
13.5753
13.4504
13.2839
13.078
12.865
12.7162
12.675
12.7435
12.8479
13.8354
13.7675
13.6893
13.5927
13.4608
13.2848
13.0718
12.8571
12.7145
12.6836
12.7652
12.8761
13.8511
13.7849
13.7067
13.608
13.4717
13.2902
13.0744
12.8619
12.7279
12.7069
12.8016
12.918
13.8649
13.8011
13.7242
13.6251
13.4872
13.3036
13.0874
12.8778
12.7516
12.7381
12.8426
12.9649
13.8792
13.8202
13.7476
13.6516
13.5153
13.3321
13.1148
12.9048
12.7816
12.7687
12.8782
13.01
13.8964
13.8466
13.7843
13.6973
13.5674
13.3863
13.1653
12.9466
12.8159
12.7931
12.9065
13.0464
13.91
13.8678
13.8139
13.7369
13.6184
13.445
13.2257
13.006
12.8482
12.8178
12.929
13.0546
14.4377
14.2085
14.1599
14.164
14.158
14.1353
14.0968
14.046
13.9823
13.912
13.8274
13.7398
14.4252
14.2723
14.1895
14.1811
14.17
14.1478
14.1119
14.0639
14.0039
13.9364
13.8579
13.7765
14.3854
14.27
14.2071
14.1938
14.1811
14.1595
14.1254
14.0795
14.0224
13.9579
13.8849
13.8092
14.3456
14.2557
14.2164
14.2025
14.1908
14.1701
14.1374
14.0931
14.0384
13.9767
13.9083
13.8375
14.3111
14.2416
14.2205
14.2084
14.1987
14.1792
14.1476
14.1046
14.0518
13.9926
13.9281
13.8613
14.2848
14.2309
14.2221
14.2124
14.205
14.1865
14.1558
14.1138
14.0627
14.0057
13.9444
13.8809
14.2686
14.2246
14.2226
14.215
14.2094
14.1919
14.1618
14.1206
14.0709
14.016
13.9575
13.8969
14.262
14.224
14.223
14.2164
14.2116
14.1949
14.1652
14.1247
14.0763
14.0235
13.9679
13.91
14.2627
14.2295
14.2234
14.2159
14.211
14.1949
14.1655
14.1256
14.0786
14.0281
13.9757
13.9209
14.2681
14.2398
14.2237
14.2121
14.2056
14.1896
14.1605
14.1218
14.0767
14.0295
13.9812
13.9306
14.2766
14.2517
14.2241
14.205
14.1949
14.1776
14.1484
14.112
14.0701
14.0271
13.9843
13.9403
14.2874
14.2614
14.2248
14.2003
14.1858
14.1659
14.1377
14.1033
14.064
14.024
13.9851
13.9469
13.6351
13.5328
13.429
13.3239
13.2194
13.1155
13.0185
12.9395
12.8839
12.8967
13.0135
12.8382
13.6843
13.5938
13.5016
13.4059
13.3057
13.195
13.0809
12.9548
12.8665
12.8264
12.932
12.8893
13.7266
13.6448
13.5604
13.4695
13.3679
13.2468
13.102
12.9405
12.8205
12.7664
12.8454
12.87
13.7619
13.686
13.606
13.5164
13.409
13.2727
13.0983
12.9122
12.7712
12.7203
12.7812
12.8459
13.7909
13.7188
13.6406
13.5496
13.4335
13.2806
13.087
12.8826
12.7333
12.6847
12.7429
12.8367
13.8143
13.7446
13.6667
13.573
13.4481
13.2815
13.0753
12.8622
12.7134
12.6723
12.7409
12.8454
13.8332
13.7653
13.6871
13.5905
13.4585
13.2825
13.0692
12.8544
12.7117
12.6809
12.7627
12.8736
13.8489
13.7828
13.7046
13.6059
13.4694
13.2879
13.0717
12.8592
12.725
12.7042
12.799
12.9154
13.8628
13.7991
13.7221
13.6231
13.4848
13.3013
13.0846
12.8751
12.7487
12.7355
12.84
12.9623
13.8771
13.8182
13.7455
13.6495
13.513
13.3298
13.1122
12.9021
12.7788
12.766
12.8757
13.0075
13.8944
13.8446
13.7822
13.6953
13.5652
13.384
13.1627
12.9438
12.8131
12.7904
12.9039
13.0439
13.9079
13.8658
13.8119
13.7349
13.6162
13.4428
13.2231
13.0033
12.8454
12.8152
12.9265
13.0521
14.4375
14.2087
14.1601
14.1642
14.1582
14.1354
14.0969
14.046
13.9824
13.9121
13.8273
13.7408
14.4252
14.2725
14.1897
14.1813
14.1702
14.1479
14.112
14.0639
14.0038
13.9364
13.8578
13.7773
14.3855
14.2702
14.2073
14.194
14.1813
14.1596
14.1254
14.0795
14.0223
13.9578
13.8846
13.81
14.3458
14.2559
14.2166
14.2027
14.1909
14.1701
14.1374
14.093
14.0382
13.9765
13.908
13.8381
14.3113
14.2419
14.2207
14.2086
14.1989
14.1792
14.1475
14.1045
14.0516
13.9924
13.9276
13.8618
14.2849
14.2311
14.2223
14.2126
14.2051
14.1866
14.1558
14.1137
14.0625
14.0055
13.944
13.8813
14.2687
14.2248
14.2228
14.2152
14.2095
14.192
14.1618
14.1205
14.0707
14.0158
13.9571
13.8972
14.2621
14.2242
14.2231
14.2165
14.2117
14.195
14.1652
14.1246
14.0761
14.0233
13.9675
13.9102
14.2628
14.2296
14.2235
14.2161
14.2112
14.1949
14.1655
14.1256
14.0785
14.0279
13.9754
13.9211
14.2682
14.2398
14.2238
14.2122
14.2057
14.1897
14.1605
14.1217
14.0766
14.0293
13.981
13.9309
14.2766
14.2518
14.2241
14.2051
14.195
14.1776
14.1484
14.1119
14.07
14.0269
13.9842
13.9406
14.2874
14.2614
14.2248
14.2004
14.1859
14.166
14.1377
14.1032
14.0639
14.0239
13.9851
13.9473
)
;

boundaryField
{
    rotor
    {
        type            zeroGradient;
    }
    stator
    {
        type            zeroGradient;
    }
    front
    {
        type            empty;
    }
    back
    {
        type            empty;
    }
}


// ************************************************************************* //
