/*--------------------------------*- C++ -*----------------------------------*\
| =========                 |                                                 |
| \\      /  F ield         | OpenFOAM: The Open Source CFD Toolbox           |
|  \\    /   O peration     | Version:  4.0                                   |
|   \\  /    A nd           | Web:      www.OpenFOAM.org                      |
|    \\/     M anipulation  |                                                 |
\*---------------------------------------------------------------------------*/
FoamFile
{
    version     2.0;
    format      ascii;
    class       surfaceScalarField;
    location    "200";
    object      phi;
}
// * * * * * * * * * * * * * * * * * * * * * * * * * * * * * * * * * * * * * //

dimensions      [0 3 -1 0 0 0 0];

internalField   nonuniform List<scalar> 
5952
(
6.12189e-06
-6.13314e-06
1.0474e-05
-4.35064e-06
1.34209e-05
-2.94661e-06
1.33138e-05
1.10267e-07
8.79679e-06
4.51612e-06
-1.29257e-07
8.92858e-06
-1.79014e-05
1.77706e-05
-3.68854e-05
1.8985e-05
-5.12494e-05
1.43629e-05
-6.28366e-05
1.15872e-05
-7.14523e-05
8.61487e-06
6.16585e-06
-7.76186e-05
2.7049e-06
-8.83734e-06
3.15054e-06
-4.79481e-06
-6.61193e-07
8.65723e-07
-9.85597e-06
9.30615e-06
-2.40773e-05
1.87376e-05
-3.9167e-05
2.40188e-05
-4.67509e-05
2.53543e-05
-5.07055e-05
2.294e-05
-5.50099e-05
1.8667e-05
-5.87338e-05
1.53112e-05
-6.1657e-05
1.15376e-05
8.205e-06
-6.36965e-05
-8.27141e-07
-8.00939e-06
-4.71132e-06
-9.09686e-07
-1.31629e-05
9.31761e-06
-2.40634e-05
2.02072e-05
-3.26599e-05
2.73341e-05
-3.78926e-05
2.92519e-05
-4.0624e-05
2.80857e-05
-4.25118e-05
2.4828e-05
-4.46049e-05
2.076e-05
-4.62027e-05
1.69089e-05
-4.76432e-05
1.29778e-05
9.35504e-06
-4.87935e-05
-4.54832e-06
-3.45996e-06
-1.08852e-05
5.428e-06
-1.79465e-05
1.63793e-05
-2.41255e-05
2.63867e-05
-2.80235e-05
3.12324e-05
-3.02995e-05
3.15282e-05
-3.15598e-05
2.9346e-05
-3.23802e-05
2.56486e-05
-3.31688e-05
2.15484e-05
-3.38772e-05
1.76173e-05
-3.46661e-05
1.37664e-05
1.00663e-05
-3.53776e-05
-5.5173e-06
2.05917e-06
-1.09846e-05
1.08962e-05
-1.55896e-05
2.09849e-05
-1.86665e-05
2.94643e-05
-2.02935e-05
3.28596e-05
-2.0884e-05
3.21191e-05
-2.08042e-05
2.92662e-05
-2.07721e-05
2.56166e-05
-2.09655e-05
2.17416e-05
-2.12969e-05
1.79486e-05
-2.17423e-05
1.42114e-05
1.05329e-05
-2.22091e-05
-4.84834e-06
6.90944e-06
-8.76102e-06
1.48098e-05
-1.12428e-05
2.34678e-05
-1.20682e-05
3.02902e-05
-1.17701e-05
3.25624e-05
-1.08326e-05
3.11818e-05
-9.9172e-06
2.83512e-05
-9.27586e-06
2.49749e-05
-8.97218e-06
2.14381e-05
-8.93831e-06
1.79143e-05
-9.11286e-06
1.43859e-05
1.08296e-05
-9.40999e-06
-3.72065e-06
1.06318e-05
-6.26034e-06
1.73513e-05
-6.79254e-06
2.40008e-05
-5.55061e-06
2.90497e-05
-3.36911e-06
3.03813e-05
-1.17321e-06
2.89868e-05
6.46982e-07
2.6531e-05
1.96403e-06
2.36582e-05
2.7826e-06
2.06191e-05
3.18897e-06
1.75079e-05
3.27052e-06
1.43038e-05
1.09766e-05
3.12325e-06
-3.44664e-06
1.40805e-05
-4.71138e-06
1.86174e-05
-3.37064e-06
2.26618e-05
5.07878e-08
2.56295e-05
4.10583e-06
2.63274e-05
7.73657e-06
2.53567e-05
1.06359e-05
2.36321e-05
1.27591e-05
2.15351e-05
1.41713e-05
1.92068e-05
1.49944e-05
1.66847e-05
1.53543e-05
1.39436e-05
1.09599e-05
1.53707e-05
-3.39259e-06
1.74765e-05
-3.6517e-06
1.88786e-05
-2.72273e-07
1.92841e-05
5.13431e-06
2.02244e-05
1.09144e-05
2.05486e-05
1.60022e-05
2.02699e-05
2.00673e-05
1.95675e-05
2.30887e-05
1.85141e-05
2.51677e-05
1.7128e-05
2.64579e-05
1.53945e-05
2.71299e-05
1.32714e-05
1.0753e-05
2.73366e-05
-4.57823e-06
2.20549e-05
-1.66926e-06
1.59708e-05
4.76331e-06
1.28525e-05
1.20005e-05
1.29884e-05
1.90193e-05
1.35307e-05
2.50935e-05
1.41964e-05
2.99735e-05
1.4688e-05
3.36535e-05
1.48344e-05
3.62409e-05
1.45407e-05
3.78922e-05
1.37432e-05
3.88044e-05
1.2359e-05
1.04027e-05
3.91545e-05
3.79585e-07
2.16768e-05
8.47342e-06
7.87752e-06
1.71774e-05
4.14936e-06
2.5184e-05
4.98263e-06
3.21512e-05
6.56429e-06
3.79738e-05
8.37457e-06
4.2619e-05
1.00433e-05
4.61219e-05
1.13319e-05
4.85829e-05
1.20799e-05
5.01242e-05
1.22019e-05
5.09389e-05
1.15441e-05
1.01519e-05
5.11895e-05
2.60669e-05
-4.39085e-06
3.64549e-05
-2.51084e-06
4.30381e-05
-2.43389e-06
4.85596e-05
-5.38942e-07
5.30653e-05
2.0587e-06
5.67551e-05
4.68487e-06
5.96796e-05
7.11892e-06
6.18275e-05
9.18404e-06
6.3223e-05
1.06844e-05
6.39137e-05
1.1511e-05
6.40649e-05
1.13928e-05
6.37853e-05
1.04311e-05
-8.14736e-05
3.85432e-06
-8.32349e-05
1.76059e-06
-8.30163e-05
-2.19192e-07
-8.09982e-05
-2.01894e-06
-7.71945e-05
-3.80445e-06
-7.14736e-05
-5.72168e-06
-6.37248e-05
-7.74954e-06
-5.3762e-05
-9.96361e-06
-4.14079e-05
-1.23548e-05
-2.67348e-05
-1.4674e-05
-1.10992e-05
-1.56377e-05
-1.10999e-05
-6.49334e-05
5.09066e-06
-6.54004e-05
2.22707e-06
-6.51322e-05
-4.8807e-07
-6.40156e-05
-3.13632e-06
-6.18848e-05
-5.93597e-06
-5.86379e-05
-8.9694e-06
-5.4081e-05
-1.23074e-05
-4.8024e-05
-1.60215e-05
-4.02033e-05
-2.01764e-05
-3.02844e-05
-2.45939e-05
-1.77493e-05
-2.81743e-05
-2.88497e-05
-4.96433e-05
5.94005e-06
-5.00864e-05
2.66976e-06
-4.99915e-05
-5.83477e-07
-4.91932e-05
-3.93526e-06
-4.76267e-05
-7.50309e-06
-4.52098e-05
-1.13871e-05
-4.18384e-05
-1.56796e-05
-3.73895e-05
-2.04713e-05
-3.17296e-05
-2.58372e-05
-2.4387e-05
-3.19374e-05
-1.44572e-05
-3.8105e-05
-4.33072e-05
-3.59107e-05
6.47285e-06
-3.61543e-05
2.91309e-06
-3.60167e-05
-7.21486e-07
-3.54246e-05
-4.52774e-06
-3.43276e-05
-8.60055e-06
-3.26657e-05
-1.30496e-05
-3.03784e-05
-1.79676e-05
-2.74084e-05
-2.34422e-05
-2.35659e-05
-2.96803e-05
-1.8521e-05
-3.69829e-05
-1.13607e-05
-4.52659e-05
-5.46685e-05
-2.26077e-05
6.87125e-06
-2.28526e-05
3.15773e-06
-2.28782e-05
-6.96269e-07
-2.26367e-05
-4.76959e-06
-2.20925e-05
-9.14523e-06
-2.12059e-05
-1.39367e-05
-1.99426e-05
-1.92315e-05
-1.82366e-05
-2.51488e-05
-1.59552e-05
-3.19624e-05
-1.292e-05
-4.0019e-05
-8.05194e-06
-5.01354e-05
-6.27209e-05
-9.74399e-06
7.20507e-06
-1.00432e-05
3.45649e-06
-1.02574e-05
-4.82547e-07
-1.03545e-05
-4.67314e-06
-1.03168e-05
-9.1836e-06
-1.01477e-05
-1.41067e-05
-9.83376e-06
-1.95463e-05
-9.33511e-06
-2.56486e-05
-8.61944e-06
-3.26795e-05
-7.54199e-06
-4.10977e-05
-5.40705e-06
-5.22717e-05
-6.81292e-05
2.83673e-06
7.49099e-06
2.48e-06
3.81276e-06
2.09394e-06
-9.72723e-08
1.69489e-06
-4.27487e-06
1.27518e-06
-8.76501e-06
8.11714e-07
-1.36442e-05
2.84858e-07
-1.90208e-05
-3.15313e-07
-2.50497e-05
-9.89249e-07
-3.20064e-05
-1.68092e-06
-4.04082e-05
-2.15384e-06
-5.18012e-05
-7.02837e-05
1.51511e-05
7.71023e-06
1.47709e-05
4.19236e-06
1.42696e-05
4.03402e-07
1.36516e-05
-3.65786e-06
1.2887e-05
-8.0013e-06
1.19211e-05
-1.26796e-05
1.06848e-05
-1.77855e-05
9.09936e-06
-2.34652e-05
7.07115e-06
-2.99801e-05
4.53089e-06
-3.78688e-05
1.63435e-06
-4.89062e-05
-6.8651e-05
2.72172e-05
7.82933e-06
2.68629e-05
4.54617e-06
2.63198e-05
9.4577e-07
2.55893e-05
-2.92827e-06
2.46257e-05
-7.03875e-06
2.33455e-05
-1.14005e-05
2.1627e-05
-1.6068e-05
1.93177e-05
-2.1157e-05
1.61945e-05
-2.6857e-05
1.19832e-05
-3.36592e-05
6.53597e-06
-4.34613e-05
-6.21153e-05
3.91219e-05
7.86148e-06
3.88136e-05
4.85402e-06
3.8285e-05
1.47362e-06
3.75416e-05
-2.18568e-06
3.65335e-05
-6.0316e-06
3.51601e-05
-1.00278e-05
3.32544e-05
-1.4163e-05
3.05943e-05
-1.84972e-05
2.67862e-05
-2.305e-05
2.13153e-05
-2.81887e-05
1.32251e-05
-3.53714e-05
-4.88912e-05
5.10899e-05
7.96071e-06
5.07482e-05
5.19512e-06
5.02223e-05
1.99875e-06
4.9523e-05
-1.48729e-06
4.86056e-05
-5.11505e-06
4.73708e-05
-8.79367e-06
4.56363e-05
-1.2429e-05
4.31351e-05
-1.59964e-05
3.9306e-05
-1.92207e-05
3.3343e-05
-2.22262e-05
2.25568e-05
-2.4586e-05
-2.63334e-05
6.3323e-05
8.42271e-06
6.27614e-05
5.75618e-06
6.21511e-05
2.60849e-06
6.15069e-05
-8.43751e-07
6.07928e-05
-4.40127e-06
5.99234e-05
-7.92461e-06
5.87426e-05
-1.12483e-05
5.70096e-05
-1.42633e-05
5.41643e-05
-1.63755e-05
4.90625e-05
-1.71241e-05
3.75656e-05
-1.30883e-05
1.12317e-05
6.13347e-06
-6.13154e-06
1.04665e-05
-4.33177e-06
1.34113e-05
-2.94468e-06
1.33344e-05
7.84529e-08
8.86789e-06
4.4656e-06
3.37488e-09
8.86604e-06
-1.76891e-05
1.76915e-05
-3.67035e-05
1.90154e-05
-5.10962e-05
1.4392e-05
-6.2706e-05
1.16103e-05
-7.13409e-05
8.63439e-06
6.18248e-06
-7.75232e-05
2.71118e-06
-8.8412e-06
3.21023e-06
-4.82894e-06
-5.40885e-07
8.07156e-07
-9.64623e-06
9.18451e-06
-2.38358e-05
1.86552e-05
-3.89744e-05
2.4005e-05
-4.66508e-05
2.53678e-05
-5.06167e-05
2.29817e-05
-5.49263e-05
1.87016e-05
-5.86567e-05
1.53409e-05
-6.15869e-05
1.15643e-05
8.22669e-06
-6.3631e-05
-7.76725e-07
-8.06238e-06
-4.59388e-06
-1.01001e-06
-1.29833e-05
9.19738e-06
-2.39141e-05
2.0116e-05
-3.25698e-05
2.73112e-05
-3.78268e-05
2.92626e-05
-4.05736e-05
2.81147e-05
-4.24589e-05
2.48674e-05
-4.45522e-05
2.07949e-05
-4.61523e-05
1.69412e-05
-4.75935e-05
1.30054e-05
9.37751e-06
-4.87443e-05
-4.50762e-06
-3.55181e-06
-1.08103e-05
5.29455e-06
-1.78752e-05
1.62632e-05
-2.40809e-05
2.63227e-05
-2.79889e-05
3.12196e-05
-3.02708e-05
3.15452e-05
-3.15346e-05
2.93787e-05
-3.23533e-05
2.56866e-05
-3.31402e-05
2.15817e-05
-3.38449e-05
1.76461e-05
-3.46303e-05
1.37906e-05
1.00872e-05
-3.53399e-05
-5.47817e-06
1.93012e-06
-1.09465e-05
1.07643e-05
-1.55598e-05
2.08779e-05
-1.86577e-05
2.94213e-05
-2.02919e-05
3.28552e-05
-2.0887e-05
3.21404e-05
-2.08024e-05
2.92953e-05
-2.07622e-05
2.5646e-05
-2.09487e-05
2.17689e-05
-2.12753e-05
1.79721e-05
-2.17166e-05
1.42322e-05
1.05513e-05
-2.21813e-05
-4.85196e-06
6.78392e-06
-8.77101e-06
1.46852e-05
-1.12638e-05
2.33715e-05
-1.20907e-05
3.02504e-05
-1.17948e-05
3.25594e-05
-1.085e-05
3.11977e-05
-9.9273e-06
2.83721e-05
-9.27672e-06
2.49969e-05
-8.96672e-06
2.1458e-05
-8.92679e-06
1.79329e-05
-9.09804e-06
1.44025e-05
1.08456e-05
-9.39204e-06
-3.74302e-06
1.05296e-05
-6.30113e-06
1.7245e-05
-6.84462e-06
2.39168e-05
-5.5977e-06
2.90048e-05
-3.40971e-06
3.03735e-05
-1.20377e-06
2.89925e-05
6.26826e-07
2.65428e-05
1.95209e-06
2.36716e-05
2.77805e-06
2.06326e-05
3.18935e-06
1.75212e-05
3.27488e-06
1.4317e-05
1.09898e-05
3.12998e-06
-3.48126e-06
1.40146e-05
-4.76982e-06
1.85359e-05
-3.44117e-06
2.2591e-05
-1.60981e-08
2.55818e-05
4.05186e-06
2.63071e-05
7.69496e-06
2.53508e-05
1.0605e-05
2.36336e-05
1.27368e-05
2.15403e-05
1.41558e-05
1.92138e-05
1.49839e-05
1.66932e-05
1.53474e-05
1.39532e-05
1.09707e-05
1.53662e-05
-3.43152e-06
1.74476e-05
-3.71474e-06
1.88218e-05
-3.46779e-07
1.92237e-05
5.0607e-06
2.01766e-05
1.08508e-05
2.05188e-05
1.595e-05
2.02531e-05
2.00255e-05
1.95592e-05
2.30553e-05
1.85114e-05
2.51408e-05
1.71287e-05
2.64361e-05
1.53981e-05
2.71118e-05
1.32775e-05
1.07614e-05
2.73209e-05
-4.60006e-06
2.20509e-05
-1.70978e-06
1.59322e-05
4.70636e-06
1.28112e-05
1.19357e-05
1.29483e-05
1.89563e-05
1.34997e-05
2.50366e-05
1.41739e-05
2.99239e-05
1.46728e-05
3.36108e-05
1.48252e-05
3.6204e-05
1.45359e-05
3.786e-05
1.37421e-05
3.87759e-05
1.23615e-05
1.04085e-05
3.91284e-05
3.77676e-07
2.1674e-05
8.45247e-06
7.85964e-06
1.7138e-05
4.12432e-06
2.51343e-05
4.95361e-06
3.20977e-05
6.53747e-06
3.7921e-05
8.35169e-06
4.25693e-05
1.00253e-05
4.60761e-05
1.1319e-05
4.85409e-05
1.20715e-05
5.00856e-05
1.21976e-05
5.09031e-05
1.1544e-05
1.01556e-05
5.11558e-05
2.60682e-05
-4.39376e-06
3.64443e-05
-2.51763e-06
4.30155e-05
-2.44457e-06
4.85268e-05
-5.57664e-07
5.30262e-05
2.03826e-06
5.67132e-05
4.66498e-06
5.96372e-05
7.10153e-06
6.17859e-05
9.17054e-06
6.31825e-05
1.06749e-05
6.38744e-05
1.15057e-05
6.40267e-05
1.13915e-05
6.37481e-05
1.04338e-05
-8.13911e-05
3.86743e-06
-8.31627e-05
1.77144e-06
-8.29517e-05
-2.11465e-07
-8.09397e-05
-2.01237e-06
-7.71417e-05
-3.79846e-06
-7.14263e-05
-5.71583e-06
-6.36835e-05
-7.74316e-06
-5.37274e-05
-9.95651e-06
-4.13813e-05
-1.23464e-05
-2.67185e-05
-1.46632e-05
-1.11069e-05
-1.56125e-05
-1.11073e-05
-6.48721e-05
5.10832e-06
-6.53421e-05
2.24127e-06
-6.50778e-05
-4.76094e-07
-6.39655e-05
-3.12499e-06
-6.18399e-05
-5.92456e-06
-5.85985e-05
-8.95751e-06
-5.40477e-05
-1.22945e-05
-4.79972e-05
-1.60074e-05
-4.01829e-05
-2.01611e-05
-3.02696e-05
-2.4577e-05
-1.77257e-05
-2.81571e-05
-2.88332e-05
-4.9595e-05
5.9588e-06
-5.00398e-05
2.68594e-06
-4.99477e-05
-5.68354e-07
-4.91528e-05
-3.92016e-06
-4.75903e-05
-7.48734e-06
-4.51779e-05
-1.13703e-05
-4.18113e-05
-1.56614e-05
-3.73674e-05
-2.04518e-05
-3.17129e-05
-2.58161e-05
-2.43754e-05
-3.19149e-05
-1.44511e-05
-3.80819e-05
-4.32844e-05
-3.58725e-05
6.49118e-06
-3.61168e-05
2.93015e-06
-3.59808e-05
-7.04653e-07
-3.5391e-05
-4.51013e-06
-3.4297e-05
-8.58163e-06
-3.26387e-05
-1.30289e-05
-3.03553e-05
-1.79452e-05
-2.73896e-05
-2.34178e-05
-2.3552e-05
-2.96542e-05
-1.85116e-05
-3.69557e-05
-1.1355e-05
-4.52388e-05
-5.464e-05
-2.25785e-05
6.88858e-06
-2.28235e-05
3.17456e-06
-2.28497e-05
-6.78534e-07
-2.26099e-05
-4.75043e-06
-2.20679e-05
-9.12398e-06
-2.11841e-05
-1.39132e-05
-1.9924e-05
-1.92056e-05
-1.82218e-05
-2.51207e-05
-1.59442e-05
-3.19322e-05
-1.29128e-05
-3.99877e-05
-8.04906e-06
-5.0104e-05
-6.26894e-05
-9.72491e-06
7.22057e-06
-1.00233e-05
3.47282e-06
-1.02379e-05
-4.64773e-07
-1.03359e-05
-4.653e-06
-1.02999e-05
-9.16087e-06
-1.01328e-05
-1.4081e-05
-9.82151e-06
-1.95179e-05
-9.32559e-06
-2.56173e-05
-8.61289e-06
-3.2646e-05
-7.53877e-06
-4.10637e-05
-5.40585e-06
-5.22376e-05
-6.80967e-05
2.84522e-06
7.50498e-06
2.48919e-06
3.82805e-06
2.10336e-06
-7.96827e-08
1.70379e-06
-4.2545e-06
1.28322e-06
-8.74135e-06
8.18294e-07
-1.36173e-05
2.89911e-07
-1.89906e-05
-3.12248e-07
-2.50165e-05
-9.88712e-07
-3.1971e-05
-1.68154e-06
-4.03715e-05
-2.15571e-06
-5.17669e-05
-7.02527e-05
1.51482e-05
7.72251e-06
1.4769e-05
4.20669e-06
1.4268e-05
4.2038e-07
1.36502e-05
-3.63753e-06
1.28851e-05
-7.97742e-06
1.19187e-05
-1.2652e-05
1.06816e-05
-1.77546e-05
9.0953e-06
-2.34311e-05
7.06695e-06
-2.99434e-05
4.52571e-06
-3.78326e-05
1.63102e-06
-4.88719e-05
-6.8623e-05
2.72031e-05
7.83996e-06
2.68498e-05
4.55939e-06
2.63073e-05
9.62059e-07
2.55773e-05
-2.90838e-06
2.46138e-05
-7.01494e-06
2.33337e-05
-1.13728e-05
2.16154e-05
-1.60371e-05
1.93065e-05
-2.11229e-05
1.61835e-05
-2.68211e-05
1.19741e-05
-3.36226e-05
6.52922e-06
-4.34293e-05
-6.20933e-05
3.90976e-05
7.87042e-06
3.87903e-05
4.86597e-06
3.82626e-05
1.48913e-06
3.75199e-05
-2.16649e-06
3.65125e-05
-6.00817e-06
3.51397e-05
-1.00006e-05
3.32349e-05
-1.41327e-05
3.05758e-05
-1.84641e-05
2.67702e-05
-2.30153e-05
2.13017e-05
-2.81549e-05
1.3216e-05
-3.53423e-05
-4.88768e-05
5.10576e-05
7.96816e-06
5.0717e-05
5.20597e-06
5.0192e-05
2.01346e-06
4.94936e-05
-1.46878e-06
4.85771e-05
-5.09226e-06
4.73433e-05
-8.76728e-06
4.56103e-05
-1.24e-05
4.31112e-05
-1.59651e-05
3.92851e-05
-1.91892e-05
3.3327e-05
-2.21958e-05
2.25469e-05
-2.45614e-05
-2.63296e-05
6.32865e-05
8.42933e-06
6.27257e-05
5.76634e-06
6.2116e-05
2.62268e-06
6.14726e-05
-8.25737e-07
6.07593e-05
-4.37929e-06
5.98914e-05
-7.89936e-06
5.87125e-05
-1.12211e-05
5.6982e-05
-1.42344e-05
5.41405e-05
-1.63471e-05
4.90442e-05
-1.70988e-05
3.75544e-05
-1.30712e-05
1.12268e-05
6.13623e-06
-6.13475e-06
1.04763e-05
-4.33852e-06
1.34211e-05
-2.94398e-06
1.33252e-05
9.88297e-08
8.82093e-06
4.50446e-06
-9.56415e-08
8.91974e-06
-1.78581e-05
1.7762e-05
-3.68635e-05
1.9007e-05
-5.12452e-05
1.43811e-05
-6.28463e-05
1.16017e-05
-7.1473e-05
8.62601e-06
6.17398e-06
-7.76471e-05
2.70511e-06
-8.83856e-06
3.17415e-06
-4.80598e-06
-6.15311e-07
8.46557e-07
-9.78554e-06
9.27036e-06
-2.40049e-05
1.87242e-05
-3.91188e-05
2.40344e-05
-4.67358e-05
2.53792e-05
-5.06991e-05
2.29709e-05
-5.50101e-05
1.86921e-05
-5.87398e-05
1.53317e-05
-6.1668e-05
1.1554e-05
8.21679e-06
-6.37109e-05
-8.03202e-07
-8.03421e-06
-4.65967e-06
-9.4832e-07
-1.309e-05
9.27749e-06
-2.40081e-05
2.01892e-05
-3.26337e-05
2.73502e-05
-3.78807e-05
2.92821e-05
-4.06212e-05
2.81199e-05
-4.25127e-05
2.4863e-05
-4.46097e-05
2.07891e-05
-4.62107e-05
1.69329e-05
-4.76536e-05
1.29968e-05
9.36897e-06
-4.88059e-05
-4.52694e-06
-3.50549e-06
-1.08482e-05
5.37417e-06
-1.79134e-05
1.63433e-05
-2.41068e-05
2.63833e-05
-2.80135e-05
3.12574e-05
-3.02958e-05
3.1565e-05
-3.15602e-05
2.93848e-05
-3.23821e-05
2.56853e-05
-3.31722e-05
2.15793e-05
-3.3882e-05
1.76429e-05
-3.46722e-05
1.37869e-05
1.00818e-05
-3.53851e-05
-5.49832e-06
1.99531e-06
-1.09659e-05
1.08432e-05
-1.55761e-05
2.09544e-05
-1.86593e-05
2.94676e-05
-2.02921e-05
3.28908e-05
-2.08861e-05
3.216e-05
-2.08064e-05
2.93057e-05
-2.07729e-05
2.56525e-05
-2.09661e-05
2.17727e-05
-2.12977e-05
1.79749e-05
-2.17437e-05
1.42329e-05
1.05496e-05
-2.22114e-05
-4.84757e-06
6.8459e-06
-8.76064e-06
1.47576e-05
-1.12449e-05
2.34403e-05
-1.20744e-05
3.02981e-05
-1.17757e-05
3.25935e-05
-1.08352e-05
3.12204e-05
-9.91721e-06
2.8389e-05
-9.27378e-06
2.50095e-05
-8.96899e-06
2.14686e-05
-8.9347e-06
1.79407e-05
-9.10943e-06
1.4408e-05
1.08471e-05
-9.40715e-06
-3.72791e-06
1.05767e-05
-6.27281e-06
1.73045e-05
-6.80705e-06
2.39761e-05
-5.56265e-06
2.90556e-05
-3.37662e-06
3.04089e-05
-1.1752e-06
2.90208e-05
6.49186e-07
2.65655e-05
1.96905e-06
2.36909e-05
2.78938e-06
2.06486e-05
3.19659e-06
1.75341e-05
3.27825e-06
1.43263e-05
1.09951e-05
3.13058e-06
-3.46034e-06
1.40386e-05
-4.73336e-06
1.85798e-05
-3.39495e-06
2.26395e-05
3.24271e-08
2.56303e-05
4.09646e-06
2.63466e-05
7.73469e-06
2.53841e-05
1.06393e-05
2.36621e-05
1.27661e-05
2.1565e-05
1.41805e-05
1.92349e-05
1.50048e-05
1.67103e-05
1.53651e-05
1.39663e-05
1.09791e-05
1.53811e-05
-3.41176e-06
1.74543e-05
-3.68001e-06
1.88503e-05
-3.01361e-07
1.92628e-05
5.11146e-06
2.02193e-05
1.0901e-05
2.05586e-05
1.59972e-05
2.02894e-05
2.00688e-05
1.95917e-05
2.30947e-05
1.85401e-05
2.51766e-05
1.71537e-05
2.64686e-05
1.54188e-05
2.71416e-05
1.32937e-05
1.07726e-05
2.73483e-05
-4.59049e-06
2.20458e-05
-1.68854e-06
1.59492e-05
4.7388e-06
1.28368e-05
1.1977e-05
1.2982e-05
1.90013e-05
1.35354e-05
2.50822e-05
1.42094e-05
2.99685e-05
1.47063e-05
3.36535e-05
1.48557e-05
3.62449e-05
1.45629e-05
3.78991e-05
1.37651e-05
3.88131e-05
1.23799e-05
1.04219e-05
3.9164e-05
3.78743e-07
2.16682e-05
8.46251e-06
7.86602e-06
1.71571e-05
4.14274e-06
2.51598e-05
4.98005e-06
3.21277e-05
6.5682e-06
3.79538e-05
8.38399e-06
4.26037e-05
1.0057e-05
4.61115e-05
1.13485e-05
4.8577e-05
1.20979e-05
5.01222e-05
1.22203e-05
5.09399e-05
1.15624e-05
1.01693e-05
5.11926e-05
2.60629e-05
-4.3955e-06
3.64404e-05
-2.51187e-06
4.30134e-05
-2.43076e-06
4.85286e-05
-5.35378e-07
5.30324e-05
2.06422e-06
5.67236e-05
4.69271e-06
5.96515e-05
7.12915e-06
6.18038e-05
9.19631e-06
6.3204e-05
1.06978e-05
6.38995e-05
1.15247e-05
6.40551e-05
1.14068e-05
6.37791e-05
1.04451e-05
-8.1507e-05
3.85928e-06
-8.32704e-05
1.76303e-06
-8.30517e-05
-2.19335e-07
-8.10314e-05
-2.02086e-06
-7.72242e-05
-3.80779e-06
-7.14987e-05
-5.7261e-06
-6.37445e-05
-7.75481e-06
-5.37756e-05
-9.96954e-06
-4.14152e-05
-1.23609e-05
-2.67387e-05
-1.46772e-05
-1.11405e-05
-1.55998e-05
-1.11411e-05
-6.49505e-05
5.09843e-06
-6.54192e-05
2.23135e-06
-6.51524e-05
-4.867e-07
-6.40364e-05
-3.13732e-06
-6.1906e-05
-5.93885e-06
-5.86591e-05
-8.97369e-06
-5.4102e-05
-1.23126e-05
-4.80448e-05
-1.60274e-05
-4.02234e-05
-2.0183e-05
-3.03007e-05
-2.46007e-05
-1.77189e-05
-2.81827e-05
-2.88603e-05
-4.96573e-05
5.94951e-06
-5.01016e-05
2.67543e-06
-5.00077e-05
-5.80967e-07
-4.92101e-05
-3.9354e-06
-4.76439e-05
-7.50554e-06
-4.52267e-05
-1.13915e-05
-4.18546e-05
-1.56855e-05
-3.7404e-05
-2.04787e-05
-3.17419e-05
-2.58458e-05
-2.43961e-05
-3.19472e-05
-1.44633e-05
-3.81163e-05
-4.33239e-05
-3.59196e-05
6.48381e-06
-3.61644e-05
2.92012e-06
-3.60278e-05
-7.17884e-07
-3.54363e-05
-4.52716e-06
-3.43396e-05
-8.60268e-06
-3.26773e-05
-1.30542e-05
-3.03892e-05
-1.79741e-05
-2.7418e-05
-2.34506e-05
-2.3574e-05
-2.96903e-05
-1.85273e-05
-3.69944e-05
-1.13646e-05
-4.52794e-05
-5.46889e-05
-2.26112e-05
6.88344e-06
-2.28571e-05
3.16595e-06
-2.28836e-05
-6.91632e-07
-2.26428e-05
-4.7682e-06
-2.2099e-05
-9.14687e-06
-2.12124e-05
-1.39412e-05
-1.99488e-05
-1.92382e-05
-1.82422e-05
-2.51576e-05
-1.59601e-05
-3.1973e-05
-1.29235e-05
-4.00317e-05
-8.05307e-06
-5.01511e-05
-6.27424e-05
-9.742e-06
7.2184e-06
-1.00422e-05
3.46588e-06
-1.02573e-05
-4.76749e-07
-1.03553e-05
-4.67072e-06
-1.03183e-05
-9.18438e-06
-1.01498e-05
-1.41105e-05
-9.83596e-06
-1.95527e-05
-9.33726e-06
-2.56573e-05
-8.62125e-06
-3.26903e-05
-7.54322e-06
-4.11108e-05
-5.40751e-06
-5.22879e-05
-6.8151e-05
2.84325e-06
7.50547e-06
2.48553e-06
3.82348e-06
2.09834e-06
-9.01276e-08
1.69818e-06
-4.27112e-06
1.27743e-06
-8.76459e-06
8.1309e-07
-1.3647e-05
2.85609e-07
-1.90265e-05
-3.14965e-07
-2.50579e-05
-9.89167e-07
-3.20168e-05
-1.68095e-06
-4.0421e-05
-2.15386e-06
-5.18172e-05
-7.03054e-05
1.51608e-05
7.72585e-06
1.47795e-05
4.20445e-06
1.4277e-05
4.1205e-07
1.36576e-05
-3.65258e-06
1.28916e-05
-7.99937e-06
1.19245e-05
-1.2681e-05
1.06874e-05
-1.77902e-05
9.10129e-06
-2.34727e-05
7.07267e-06
-2.999e-05
4.53217e-06
-3.78812e-05
1.63529e-06
-4.89216e-05
-6.86717e-05
2.72282e-05
7.84591e-06
2.68728e-05
4.55962e-06
2.63284e-05
9.55946e-07
2.55965e-05
-2.92138e-06
2.46314e-05
-7.03514e-06
2.33498e-05
-1.14003e-05
2.16302e-05
-1.60715e-05
1.93201e-05
-2.11636e-05
1.61965e-05
-2.68664e-05
1.19848e-05
-3.36711e-05
6.53678e-06
-4.34758e-05
-6.21351e-05
3.91314e-05
7.87839e-06
3.88224e-05
4.86839e-06
3.82928e-05
1.485e-06
3.75482e-05
-2.17744e-06
3.65388e-05
-6.02649e-06
3.5164e-05
-1.00263e-05
3.32573e-05
-1.41653e-05
3.05965e-05
-1.8503e-05
2.67883e-05
-2.30592e-05
2.13174e-05
-2.82004e-05
1.32264e-05
-3.5385e-05
-4.89095e-05
5.10941e-05
7.97677e-06
5.07527e-05
5.20945e-06
5.02268e-05
2.01044e-06
4.95271e-05
-1.47848e-06
4.8609e-05
-5.10912e-06
4.73734e-05
-8.79127e-06
4.56384e-05
-1.24307e-05
4.31369e-05
-1.60019e-05
3.93081e-05
-1.92301e-05
3.33458e-05
-2.22385e-05
2.25592e-05
-2.4599e-05
-2.63493e-05
6.33195e-05
8.43631e-06
6.27595e-05
5.7691e-06
6.21505e-05
2.61908e-06
6.15071e-05
-8.35646e-07
6.07934e-05
-4.39568e-06
5.99243e-05
-7.92242e-06
5.87438e-05
-1.12503e-05
5.70112e-05
-1.42691e-05
5.41667e-05
-1.63857e-05
4.90661e-05
-1.71376e-05
3.75694e-05
-1.31015e-05
1.12197e-05
6.1353e-06
-6.13316e-06
1.04712e-05
-4.33442e-06
1.34168e-05
-2.9454e-06
1.33366e-05
8.19813e-08
8.86372e-06
4.4721e-06
-9.40643e-09
8.87479e-06
-1.77154e-05
1.77052e-05
-3.67318e-05
1.90173e-05
-5.1125e-05
1.43927e-05
-6.27357e-05
1.16111e-05
-7.13708e-05
8.63465e-06
6.18251e-06
-7.75532e-05
2.71172e-06
-8.84315e-06
3.20574e-06
-4.82638e-06
-5.52615e-07
8.13846e-07
-9.67046e-06
9.20065e-06
-2.3868e-05
1.86697e-05
-3.90065e-05
2.40137e-05
-4.66756e-05
2.53743e-05
-5.06421e-05
2.29843e-05
-5.49531e-05
1.87036e-05
-5.86844e-05
1.53428e-05
-6.16151e-05
1.15651e-05
8.22707e-06
-6.36595e-05
-7.81669e-07
-8.05921e-06
-4.60578e-06
-1.00035e-06
-1.30032e-05
9.21215e-06
-2.39335e-05
2.01317e-05
-3.25869e-05
2.73234e-05
-3.78445e-05
2.92719e-05
-4.05914e-05
2.81213e-05
-4.24783e-05
2.48717e-05
-4.45729e-05
2.07982e-05
-4.61735e-05
1.69436e-05
-4.76153e-05
1.30067e-05
9.37828e-06
-4.87664e-05
-4.51156e-06
-3.5445e-06
-1.08181e-05
5.30823e-06
-1.78841e-05
1.62791e-05
-2.40895e-05
2.63382e-05
-2.79999e-05
3.12344e-05
-3.02833e-05
3.1556e-05
-3.15481e-05
2.93863e-05
-3.23678e-05
2.56919e-05
-3.31555e-05
2.15859e-05
-3.3861e-05
1.76493e-05
-3.46474e-05
1.37929e-05
1.00886e-05
-3.53576e-05
-5.48273e-06
1.94225e-06
-1.09529e-05
1.07799e-05
-1.55684e-05
2.08962e-05
-1.86636e-05
2.9434e-05
-2.02984e-05
3.28705e-05
-2.08941e-05
3.21518e-05
-2.08104e-05
2.93039e-05
-2.07715e-05
2.56527e-05
-2.09592e-05
2.17743e-05
-2.1287e-05
1.79765e-05
-2.17293e-05
1.42356e-05
1.05535e-05
-2.21949e-05
-4.85065e-06
6.7949e-06
-8.76924e-06
1.47004e-05
-1.12616e-05
2.33893e-05
-1.20923e-05
3.02671e-05
-1.17962e-05
3.25746e-05
-1.0852e-05
3.12099e-05
-9.93038e-06
2.83817e-05
-9.28104e-06
2.50048e-05
-8.97236e-06
2.14647e-05
-8.93367e-06
1.79386e-05
-9.10608e-06
1.4407e-05
1.08488e-05
-9.40103e-06
-3.73966e-06
1.05374e-05
-6.29553e-06
1.72581e-05
-6.83772e-06
2.39335e-05
-5.593e-06
2.90237e-05
-3.40556e-06
3.03893e-05
-1.20042e-06
2.90055e-05
6.29127e-07
2.65535e-05
1.95316e-06
2.36808e-05
2.77783e-06
2.06406e-05
3.18787e-06
1.75282e-05
3.27222e-06
1.43227e-05
1.09941e-05
3.12628e-06
-3.47765e-06
1.40189e-05
-4.76366e-06
1.85465e-05
-3.43313e-06
2.26058e-05
-6.98068e-09
2.55997e-05
4.06111e-06
2.63229e-05
7.70377e-06
2.53642e-05
1.06129e-05
2.36453e-05
1.27437e-05
2.15507e-05
1.41614e-05
1.92231e-05
1.49883e-05
1.67014e-05
1.53506e-05
1.39602e-05
1.09762e-05
1.53683e-05
-3.42951e-06
1.745e-05
-3.71069e-06
1.88305e-05
-3.39769e-07
1.92357e-05
5.07137e-06
2.01909e-05
1.08634e-05
2.05327e-05
1.59632e-05
2.0266e-05
2.00385e-05
1.95712e-05
2.30675e-05
1.85225e-05
2.5152e-05
1.71391e-05
2.64461e-05
1.54075e-05
2.71206e-05
1.32857e-05
1.07681e-05
2.73285e-05
-4.60269e-06
2.2056e-05
-1.70883e-06
1.59373e-05
4.7124e-06
1.28181e-05
1.19467e-05
1.29578e-05
1.89705e-05
1.35103e-05
2.50525e-05
1.41853e-05
2.99403e-05
1.46843e-05
3.36269e-05
1.48366e-05
3.62194e-05
1.4547e-05
3.78745e-05
1.37526e-05
3.87893e-05
1.23709e-05
1.04163e-05
3.91407e-05
3.7713e-07
2.16797e-05
8.45716e-06
7.85959e-06
1.71477e-05
4.12631e-06
2.51479e-05
4.95908e-06
3.21141e-05
6.54537e-06
3.79389e-05
8.36153e-06
4.25877e-05
1.00364e-05
4.60945e-05
1.13305e-05
4.85588e-05
1.20831e-05
5.01029e-05
1.22087e-05
5.09196e-05
1.15542e-05
1.01643e-05
5.11714e-05
2.60799e-05
-4.39963e-06
3.64594e-05
-2.52111e-06
4.30319e-05
-2.44387e-06
4.85442e-05
-5.53073e-07
5.30444e-05
2.0453e-06
5.67319e-05
4.67441e-06
5.96558e-05
7.11272e-06
6.18042e-05
9.18238e-06
6.32004e-05
1.06869e-05
6.3892e-05
1.15172e-05
6.40439e-05
1.14021e-05
6.37649e-05
1.04429e-05
-8.14209e-05
3.86727e-06
-8.31921e-05
1.77112e-06
-8.29807e-05
-2.11806e-07
-8.09682e-05
-2.01287e-06
-7.71695e-05
-3.7992e-06
-7.14528e-05
-5.71698e-06
-6.37085e-05
-7.74473e-06
-5.37502e-05
-9.95863e-06
-4.14011e-05
-1.23493e-05
-2.67327e-05
-1.46689e-05
-1.10964e-05
-1.56371e-05
-1.10967e-05
-6.49007e-05
5.1082e-06
-6.53705e-05
2.24079e-06
-6.51056e-05
-4.7705e-07
-6.39921e-05
-3.12656e-06
-6.18648e-05
-5.92701e-06
-5.8621e-05
-8.96102e-06
-5.4067e-05
-1.22992e-05
-4.80124e-05
-1.60135e-05
-4.01934e-05
-2.01688e-05
-3.0276e-05
-2.45867e-05
-1.77459e-05
-2.81678e-05
-2.88428e-05
-4.96173e-05
5.95894e-06
-5.0062e-05
2.68537e-06
-4.99694e-05
-5.69899e-07
-4.91732e-05
-3.92291e-06
-4.76091e-05
-7.49146e-06
-4.51945e-05
-1.13759e-05
-4.18254e-05
-1.56686e-05
-3.73788e-05
-2.04605e-05
-3.17214e-05
-2.58266e-05
-2.43813e-05
-3.19272e-05
-1.44546e-05
-3.8095e-05
-4.32976e-05
-3.58906e-05
6.49168e-06
-3.61349e-05
2.92956e-06
-3.59984e-05
-7.06634e-07
-3.54078e-05
-4.51373e-06
-3.43125e-05
-8.58695e-06
-3.26526e-05
-1.30361e-05
-3.03673e-05
-1.79541e-05
-2.73996e-05
-2.34287e-05
-2.35596e-05
-2.96669e-05
-1.8517e-05
-3.69701e-05
-1.13582e-05
-4.52542e-05
-5.46562e-05
-2.25926e-05
6.88966e-06
-2.28379e-05
3.17423e-06
-2.2864e-05
-6.80621e-07
-2.26237e-05
-4.7545e-06
-2.20808e-05
-9.13013e-06
-2.11959e-05
-1.39216e-05
-1.99343e-05
-1.92161e-05
-1.82302e-05
-2.51333e-05
-1.59507e-05
-3.19469e-05
-1.29173e-05
-4.0004e-05
-8.05117e-06
-5.01216e-05
-6.27077e-05
-9.73463e-06
7.22239e-06
-1.00335e-05
3.47297e-06
-1.02482e-05
-4.66689e-07
-1.0346e-05
-4.65725e-06
-1.03095e-05
-9.16754e-06
-1.01416e-05
-1.40902e-05
-9.82915e-06
-1.95294e-05
-9.33182e-06
-2.56313e-05
-8.6175e-06
-3.26622e-05
-7.54175e-06
-4.10815e-05
-5.40733e-06
-5.22566e-05
-6.81164e-05
2.84067e-06
7.50768e-06
2.484e-06
3.82888e-06
2.09777e-06
-8.11647e-08
1.69808e-06
-4.25859e-06
1.27769e-06
-8.74815e-06
8.13211e-07
-1.36269e-05
2.85516e-07
-1.90028e-05
-3.15667e-07
-2.50313e-05
-9.90889e-07
-3.19883e-05
-1.68242e-06
-4.03905e-05
-2.15585e-06
-5.17863e-05
-7.02725e-05
1.51492e-05
7.72623e-06
1.47692e-05
4.20834e-06
1.42677e-05
4.19523e-07
1.36494e-05
-3.6412e-06
1.28842e-05
-7.98405e-06
1.19179e-05
-1.26615e-05
1.0681e-05
-1.77669e-05
9.09495e-06
-2.34461e-05
7.06703e-06
-2.9961e-05
4.52632e-06
-3.78519e-05
1.63168e-06
-4.88913e-05
-6.86419e-05
2.72096e-05
7.84475e-06
2.68554e-05
4.56193e-06
2.63123e-05
9.61925e-07
2.55817e-05
-2.91147e-06
2.46179e-05
-7.02118e-06
2.33376e-05
-1.1382e-05
2.16189e-05
-1.60489e-05
1.93096e-05
-2.11375e-05
1.61862e-05
-2.68383e-05
1.19765e-05
-3.36415e-05
6.53112e-06
-4.34478e-05
-6.21102e-05
3.91089e-05
7.87622e-06
3.88008e-05
4.86937e-06
3.82724e-05
1.4897e-06
3.75292e-05
-2.16898e-06
3.65213e-05
-6.0139e-06
3.51479e-05
-1.00093e-05
3.32424e-05
-1.41438e-05
3.05825e-05
-1.84778e-05
2.67756e-05
-2.30311e-05
2.13059e-05
-2.81724e-05
1.3219e-05
-3.53596e-05
-4.88904e-05
5.10725e-05
7.97475e-06
5.07311e-05
5.21012e-06
5.02056e-05
2.01458e-06
4.95067e-05
-1.47076e-06
4.85897e-05
-5.09748e-06
4.73553e-05
-8.77533e-06
4.56214e-05
-1.24102e-05
4.31212e-05
-1.59775e-05
3.92933e-05
-1.92031e-05
3.33327e-05
-2.22109e-05
2.25507e-05
-2.45763e-05
-2.63389e-05
6.33029e-05
8.43627e-06
6.27417e-05
5.77094e-06
6.21318e-05
2.62401e-06
6.14882e-05
-8.27461e-07
6.07745e-05
-4.38411e-06
5.9906e-05
-7.90679e-06
5.87262e-05
-1.12303e-05
5.69947e-05
-1.42457e-05
5.41517e-05
-1.63594e-05
4.90528e-05
-1.71112e-05
3.75598e-05
-1.30826e-05
1.12223e-05
7.59018e-05
-2.36836e-06
-7.79238e-05
7.69075e-05
-3.51688e-06
7.70398e-05
-2.56673e-06
7.74709e-05
-9.70441e-07
7.81987e-05
1.33069e-06
7.89587e-05
3.9248e-06
7.9528e-05
6.54953e-06
7.97372e-05
8.97481e-06
7.95135e-05
1.09081e-05
7.88363e-05
1.21882e-05
7.78687e-05
1.23604e-05
1.16292e-05
7.66704e-05
9.68453e-05
-4.78153e-06
-9.4433e-05
9.78922e-05
-4.56468e-06
9.84714e-05
-3.1469e-06
9.86961e-05
-1.19593e-06
9.86974e-05
1.32887e-06
9.84183e-05
4.20338e-06
9.77669e-05
7.20072e-06
9.66714e-05
1.00701e-05
9.51246e-05
1.24548e-05
9.31628e-05
1.41499e-05
9.10336e-05
1.44893e-05
1.38393e-05
8.88231e-05
0.000111824
-6.73222e-06
-0.000109874
0.00011301
-5.75185e-06
0.000113742
-3.88014e-06
0.000113997
-1.45246e-06
0.000113804
1.52131e-06
0.000113126
4.88107e-06
0.000111896
8.43028e-06
0.000110062
1.19037e-05
0.000107627
1.48891e-05
0.000104735
1.70423e-05
0.000101741
1.74829e-05
1.66914e-05
9.88893e-05
0.000124778
-0.000123805
-7.70659e-06
0.000125314
-6.28877e-06
0.000125432
-3.99935e-06
0.000125108
-1.12918e-06
0.000124302
2.32581e-06
0.00012294
6.2427e-06
0.000120949
1.04207e-05
0.000118317
1.45358e-05
0.000115116
1.80896e-05
0.000111708
2.04502e-05
0.00010855
2.06411e-05
0.000106474