/*--------------------------------*- C++ -*----------------------------------*\
| =========                 |                                                 |
| \\      /  F ield         | OpenFOAM: The Open Source CFD Toolbox           |
|  \\    /   O peration     | Version:  4.0                                   |
|   \\  /    A nd           | Web:      www.OpenFOAM.org                      |
|    \\/     M anipulation  |                                                 |
\*---------------------------------------------------------------------------*/
FoamFile
{
    version     2.0;
    format      ascii;
    class       volVectorField;
    location    "200";
    object      U;
}
// * * * * * * * * * * * * * * * * * * * * * * * * * * * * * * * * * * * * * //

dimensions      [0 1 -1 0 0 0 0];

internalField   nonuniform List<vector> 
3072
(
(0.105359 2.22321 0)
(0.128906 1.91083 0)
(0.220456 1.72276 1.31072e-19)
(0.353114 1.59967 1.5103e-18)
(0.451013 1.67673 -1.76619e-18)
(0.894825 1.87536 9.96167e-19)
(2.07744 1.65495 1.36145e-19)
(3.00994 2.27445 4.05093e-19)
(3.21592 2.73356 -1.12396e-18)
(3.60748 3.02693 1.21127e-18)
(3.94102 3.13621 9.46639e-20)
(4.27735 3.17366 3.76687e-19)
(-0.520745 2.7735 -2.13911e-19)
(-0.272021 2.34103 -3.19921e-19)
(0.0883088 2.44027 4.10773e-19)
(0.746923 2.51858 0)
(1.70513 2.71503 4.40195e-19)
(2.60932 3.14923 -5.83569e-19)
(3.06787 3.22555 0)
(3.22263 3.32982 0)
(3.23658 3.40935 0)
(3.36303 3.4575 7.02138e-19)
(3.46014 3.50346 -1.5493e-18)
(3.59105 3.49222 6.13505e-19)
(-0.40949 3.08997 1.40659e-19)
(0.134808 2.78555 0)
(0.901203 2.94994 0)
(1.79584 3.16351 -2.03555e-18)
(2.5523 3.30585 7.50647e-19)
(3.01276 3.36355 -1.82496e-18)
(3.24055 3.27367 1.92837e-18)
(3.33928 3.22104 0)
(3.38999 3.17775 0)
(3.46963 3.13576 -9.34422e-19)
(3.53411 3.08535 -7.28642e-19)
(3.61782 3.02387 2.52843e-18)
(-0.192375 3.36115 -1.38696e-18)
(0.484519 3.24134 -2.34595e-18)
(1.31909 3.39622 1.20538e-18)
(2.14183 3.47198 -1.2374e-18)
(2.70978 3.43745 3.36615e-18)
(3.00228 3.34687 -2.98537e-18)
(3.16431 3.23484 -1.72536e-18)
(3.22334 3.14309 -4.72334e-18)
(3.24885 3.06753 -9.09835e-20)
(3.28369 2.99705 2.53543e-18)
(3.32895 2.93465 2.6978e-18)
(3.38966 2.87014 -2.15275e-18)
(0.0978397 3.51689 0)
(0.774972 3.52087 9.73164e-19)
(1.55041 3.59962 -1.78878e-18)
(2.26172 3.55319 2.68306e-18)
(2.69104 3.42847 3.76959e-19)
(2.92165 3.29108 1.69675e-18)
(3.00424 3.14499 1.9164e-18)
(3.04022 3.02537 1.64154e-18)
(3.06745 2.92552 -3.25291e-18)
(3.10512 2.83746 2.83644e-18)
(3.15118 2.75852 -3.78001e-18)
(3.20622 2.68413 5.10084e-18)
(0.325723 3.65205 -2.99426e-18)
(0.967669 3.72268 1.27428e-18)
(1.65405 3.72512 3.61217e-18)
(2.24261 3.59902 0)
(2.60522 3.41093 -4.73123e-18)
(2.7552 3.22526 5.75681e-18)
(2.82197 3.05397 0)
(2.85877 2.90997 -4.1264e-18)
(2.88977 2.78975 3.5407e-18)
(2.92723 2.68685 0)
(2.9713 2.59723 2.09576e-19)
(3.02175 2.51747 3.17317e-18)
(0.494195 3.80349 0)
(1.07773 3.92353 -3.15701e-18)
(1.66684 3.85291 2.80039e-18)
(2.15878 3.65832 0)
(2.43816 3.41978 -3.58592e-18)
(2.56449 3.18618 5.76756e-19)
(2.62915 2.98256 5.22421e-18)
(2.6709 2.81103 4.5735e-18)
(2.70776 2.66826 -3.98071e-18)
(2.74808 2.54843 3.82196e-18)
(2.79283 2.44702 -3.29651e-18)
(2.84197 2.36053 -9.15728e-18)
(0.628558 4.00871 0)
(1.13038 4.16524 2.97423e-18)
(1.61161 4.03 -4.83736e-18)
(2.00267 3.77885 5.09573e-18)
(2.23627 3.47676 0)
(2.357 3.19032 -6.32164e-18)
(2.42856 2.94327 5.82745e-18)
(2.48014 2.73633 3.46903e-20)
(2.52557 2.56563 -8.973e-18)
(2.57115 2.42505 -4.04607e-18)
(2.61855 2.30932 -1.94183e-19)
(2.66816 2.21406 7.07892e-18)
(0.725584 4.19697 0)
(1.15764 4.43939 -3.95335e-18)
(1.50874 4.22942 -5.82395e-18)
(1.80143 3.92597 -4.26956e-18)
(2.00026 3.57107 8.31005e-18)
(2.12775 3.2317 0)
(2.21636 2.9358 0)
(2.28429 2.68749 0)
(2.34241 2.48356 0)
(2.39628 2.31813 4.36119e-18)
(2.44827 2.18512 -4.23913e-18)
(2.49983 2.07868 4.0114e-18)
(0.834048 4.5475 0)
(1.08423 4.70425 2.75265e-18)
(1.31025 4.37388 -6.14506e-19)
(1.54204 4.00365 4.63746e-18)
(1.72422 3.6126 4.4315e-18)
(1.86699 3.24094 -7.13813e-18)
(1.97925 2.91224 0)
(2.07053 2.63332 -1.94224e-19)
(2.14742 2.40234 -1.66147e-17)
(2.21516 2.21509 0)
(2.27606 2.06626 9.79347e-18)
(2.33274 1.94947 -4.51437e-18)
(1.07984 4.58415 0)
(0.940053 4.64316 3.10609e-18)
(1.00434 4.22923 9.32249e-18)
(1.19367 3.81108 -7.98621e-18)
(1.38197 3.43684 -1.0988e-17)
(1.54967 3.08453 1.72536e-17)
(1.69425 2.76926 -1.68301e-19)
(1.81733 2.49738 -6.33753e-18)
(1.92168 2.26772 5.21125e-18)
(2.01175 2.07903 -1.08225e-17)
(2.08901 1.92855 -1.50646e-17)
(2.15722 1.81081 1.51711e-17)
(0.313382 3.97295 -1.5629e-18)
(0.434344 3.84209 -1.18443e-17)
(0.568172 3.48463 2.06022e-18)
(0.772084 3.16294 0)
(0.988857 2.90564 0)
(1.18987 2.65553 2.10762e-19)
(1.36937 2.42187 1.61359e-17)
(1.52705 2.21046 1.00436e-17)
(1.66384 2.02512 0)
(1.78308 1.86843 9.47088e-18)
(1.88366 1.74183 0)
(1.9704 1.64181 3.80675e-19)
(4.52901 3.09391 2.05681e-18)
(4.74208 2.96458 -1.15796e-18)
(4.85971 2.77064 3.61405e-19)
(4.91919 2.55643 -3.51376e-19)
(4.89797 2.30344 -9.829e-20)
(4.80352 2.04948 0)
(4.61404 1.78406 0)
(4.34042 1.53505 6.63647e-19)
(3.96627 1.2957 -7.79282e-19)
(3.45194 1.037 0)
(2.91266 0.670133 0)
(2.68426 -0.0518931 -5.72234e-19)
(3.72209 3.43733 7.70955e-19)
(3.85882 3.34034 0)
(3.98727 3.20036 -8.99794e-19)
(4.10366 3.02182 7.75163e-20)
(4.17707 2.82673 1.0656e-19)
(4.20068 2.62559 2.04157e-18)
(4.1635 2.43148 -3.37039e-18)
(4.06726 2.25932 5.59193e-19)
(3.90806 2.12417 0)
(3.56576 2.00924 0)
(3.24721 1.9047 0)
(3.29355 1.58161 5.88436e-19)
(3.70871 2.94593 9.59273e-19)
(3.80056 2.85301 -2.66726e-18)
(3.88105 2.74859 7.19622e-19)
(3.9408 2.63772 1.84356e-18)
(3.97057 2.52585 -1.94053e-18)
(3.96646 2.42329 0)
(3.92429 2.33882 0)
(3.84505 2.28415 -1.61988e-19)
(3.73249 2.27157 9.58028e-19)
(3.53974 2.29448 0)
(3.25829 2.31821 0)
(3.41753 2.26535 -3.76961e-19)
(3.45886 2.79901 2.61271e-19)
(3.52996 2.72046 2.83841e-18)
(3.59427 2.63667 2.02074e-18)
(3.64518 2.55223 -2.04115e-18)
(3.67779 2.4738 0)
(3.68932 2.40868 1.26856e-18)
(3.67755 2.36473 0)
(3.64375 2.35102 2.24909e-18)
(3.59506 2.37824 -7.86217e-19)
(3.50374 2.46467 0)
(3.29131 2.59525 -4.16746e-19)
(3.58565 2.7836 4.60675e-19)
(3.26653 2.61097 -2.0811e-18)
(3.32747 2.53859 0)
(3.38376 2.4688 0)
(3.43187 2.40493 0)
(3.46971 2.35156 0)
(3.49592 2.3161 -2.15011e-18)
(3.50974 2.30367 -1.07919e-19)
(3.51426 2.32091 -1.17919e-18)
(3.50997 2.38369 0)
(3.49531 2.50757 -8.53638e-19)
(3.34513 2.69978 4.32872e-19)
(3.76651 3.01138 -1.1813e-19)
(3.07626 2.44469 -1.84e-19)
(3.13195 2.37811 -5.26019e-18)
(3.18588 2.31871 2.48874e-18)
(3.23651 2.2687 -5.82843e-21)
(3.28317 2.23143 1.6747e-19)
(3.32663 2.2118 3.69635e-18)
(3.36847 2.21494 -1.21686e-19)
(3.4101 2.24763 -4.25812e-18)
(3.45447 2.32189 -1.74105e-18)
(3.50812 2.45855 8.57561e-19)
(3.44889 2.70789 -1.06739e-18)
(3.93264 3.12847 -3.96782e-19)
(2.89419 2.28595 8.72943e-18)
(2.94807 2.22181 2.84566e-18)
(3.00247 2.16807 0)
(3.05746 2.12578 0)
(3.11408 2.09697 1.65215e-19)
(3.17433 2.08519 -2.78984e-18)
(3.24095 2.0947 4.43268e-18)
(3.31687 2.13119 -1.08041e-19)
(3.40558 2.20475 1.53264e-18)
(3.51634 2.33451 0)
(3.54543 2.5703 -2.08999e-19)
(4.07245 3.07491 -7.13707e-20)
(2.71962 2.13559 -3.37319e-18)
(2.77277 2.07119 -3.08449e-18)
(2.828 2.01953 3.30527e-18)
(2.88675 1.98027 -3.11365e-18)
(2.95155 1.95409 2.81986e-21)
(3.02561 1.94314 6.3443e-18)
(3.11319 1.95077 -2.95776e-18)
(3.21939 1.98161 1.70378e-18)
(3.34949 2.04402 0)
(3.5169 2.1566 1.04735e-18)
(3.63704 2.37517 4.92795e-19)
(4.17434 2.91455 -7.58143e-19)
(2.55145 1.99412 3.82165e-18)
(2.60406 1.927 -3.6904e-18)
(2.65938 1.87452 -3.44051e-18)
(2.71994 1.83477 -7.1874e-18)
(2.78948 1.80677 6.98761e-18)
(2.87224 1.79113 -6.79171e-18)
(2.97403 1.78991 0)
(3.10192 1.80625 -1.67915e-18)
(3.26414 1.84575 0)
(3.4795 1.9244 0)
(3.69099 2.10022 0)
(4.21845 2.5999 3.61611e-19)
(2.38621 1.85911 4.33571e-18)
(2.43879 1.78875 -8.62534e-18)
(2.49341 1.73428 8.41205e-18)
(2.55352 1.69221 8.11983e-18)
(2.6237 1.65988 3.95513e-18)
(2.70875 1.63628 0)
(2.81559 1.62144 0)
(2.953 1.61689 4.05426e-18)
(3.13296 1.62392 0)
(3.38441 1.65436 -1.1691e-18)
(3.66661 1.75321 7.47278e-19)
(4.18991 2.14093 -1.08594e-18)
(2.21699 1.72138 -9.98996e-18)
(2.27213 1.65184 9.21939e-18)
(2.32678 1.59757 -8.9977e-18)
(2.38504 1.55417 -2.27281e-17)
(2.45191 1.51765 -2.2731e-19)
(2.53228 1.48555 1.28921e-19)
(2.63311 1.45553 -4.49719e-18)
(2.76344 1.42691 -4.20289e-18)
(2.9403 1.39417 0)
(3.20211 1.36282 3.65542e-18)
(3.52941 1.3303 8.93141e-19)
(4.03461 1.35845 -1.50963e-18)
(2.04187 1.56757 -4.0793e-19)
(2.1032 1.50846 0)
(2.15948 1.46098 0)
(2.21494 1.42065 4.36068e-18)
(2.27444 1.38301 1.35555e-17)
(2.34227 1.34494 -4.48318e-18)
(2.42479 1.30272 -2.08921e-19)
(2.52809 1.25313 -2.39973e-18)
(2.6734 1.18224 -2.32677e-18)
(2.88875 1.08304 -2.35027e-18)
(3.23012 0.883081 0)
(3.58246 0.154611 1.96096e-18)
(2.2229 -0.108585 1.8772e-22)
(1.9092 -0.132184 0)
(1.72338 -0.223693 -1.30337e-19)
(1.59904 -0.355483 0)
(1.67369 -0.453253 -8.70638e-19)
(1.87488 -0.888754 9.88794e-19)
(1.65309 -2.06426 0)
(2.26454 -3.0064 3.76089e-19)
(2.72884 -3.21413 -9.90989e-19)
(3.02124 -3.60426 9.3689e-19)
(3.13268 -3.93874 -4.32921e-19)
(3.17001 -4.27453 -3.7757e-19)
(2.77326 0.519942 -1.93756e-19)
(2.34004 0.271907 -3.97887e-20)
(2.43604 -0.0850831 3.09559e-19)
(2.51661 -0.73503 0)
(2.70618 -1.69317 -4.45719e-19)
(3.1422 -2.60372 2.50588e-19)
(3.22058 -3.06647 0)
(3.32491 -3.2234 1.06854e-18)
(3.40539 -3.23727 -2.74794e-18)
(3.45332 -3.36279 1.51951e-18)
(3.5001 -3.45995 6.87741e-19)
(3.48905 -3.59033 -2.86109e-18)
(3.08953 0.411945 -1.40541e-19)
(2.78309 -0.129091 0)
(2.94444 -0.893404 -1.33207e-18)
(3.15795 -1.78925 0)
(3.3014 -2.54938 0)
(3.36089 -3.01231 -8.1055e-19)
(3.27111 -3.24098 4.17888e-18)
(3.21818 -3.34023 -2.5468e-18)
(3.17497 -3.39048 8.75617e-19)
(3.13301 -3.46978 0)
(3.08289 -3.53406 2.0428e-18)
(3.02157 -3.61734 -1.10366e-18)
(3.36145 0.196143 8.74815e-19)
(3.23948 -0.478231 1.30602e-18)
(3.39369 -1.31269 8.85157e-19)
(3.47054 -2.13739 1.84927e-18)
(3.43642 -2.70889 -1.56664e-18)
(3.34533 -3.00253 -1.09122e-18)
(3.23323 -3.16539 0)
(3.14116 -3.22477 0)
(3.06559 -3.24995 1.56472e-18)
(2.99507 -3.28441 0)
(2.93266 -3.32918 3.53468e-19)
(2.86822 -3.38952 8.98187e-19)
(3.51849 -0.0920011 1.83228e-18)
(3.52 -0.768055 -7.86414e-19)
(3.59882 -1.54471 -1.79373e-18)
(3.55287 -2.25919 0)
(3.4286 -2.69056 0)
(3.29073 -2.92282 2.21703e-18)
(3.14437 -3.00582 0)
(3.02433 -3.04159 -3.8011e-18)
(2.92428 -3.06844 -1.4974e-18)
(2.83608 -3.10571 2.84139e-18)
(2.75707 -3.15142 -3.78552e-18)
(2.68267 -3.20618 2.43294e-18)
(3.65416 -0.320396 -1.66282e-18)
(3.72328 -0.961917 -1.12689e-18)
(3.72642 -1.64964 1.58473e-18)
(3.60024 -2.24122 2.4774e-19)
(3.41179 -2.60538 2.37161e-18)
(3.2258 -2.75633 -5.55231e-18)
(3.05402 -2.82323 4.89351e-18)
(2.90961 -2.85989 3.98217e-19)
(2.78909 -2.89063 0)
(2.686 -2.92781 0)
(2.59627 -2.97162 6.1135e-18)
(2.51645 -3.02187 7.75663e-21)
(3.80593 -0.489177 -5.53274e-20)
(3.92505 -1.07297 -1.7536e-18)
(3.85542 -1.66346 0)
(3.66068 -2.15749 -3.19277e-18)
(3.42139 -2.43867 3.79053e-18)
(3.18736 -2.5655 9.73958e-18)
(2.9832 -2.63021 5.68368e-18)
(2.81124 -2.67186 6.29841e-19)
(2.66815 -2.70852 -8.27978e-18)
(2.54809 -2.74867 3.60508e-18)
(2.44654 -2.79325 3.73806e-18)
(2.35994 -2.84226 1.75492e-19)
(4.01105 -0.625284 1.97268e-19)
(4.16736 -1.12696 2.98166e-18)
(4.03308 -1.60916 0)
(3.78197 -2.00165 -5.10661e-18)
(3.4792 -2.23645 -3.7337e-18)
(3.19213 -2.35769 5.19429e-19)
(2.94448 -2.42941 -1.12033e-17)
(2.73708 -2.48096 3.0865e-19)
(2.56603 -2.52629 -2.4267e-19)
(2.42521 -2.57179 4.26985e-18)
(2.3093 -2.61911 -3.40251e-18)
(2.2139 -2.66866 1.84119e-19)
(4.19903 -0.723976 -3.62916e-18)
(4.44167 -1.15544 1.62586e-18)
(4.23252 -1.50686 -8.47488e-18)
(3.92933 -1.80037 4.27072e-18)
(3.57403 -2.00011 0)
(3.23406 -2.12814 0)
(2.93757 -2.21701 6.40427e-18)
(2.68879 -2.28503 1.12114e-17)
(2.4845 -2.34316 -4.97762e-18)
(2.31879 -2.39701 -4.3668e-18)
(2.18555 -2.44899 -4.07089e-18)
(2.07893 -2.50055 0)
(4.5489 -0.833758 5.55743e-20)
(4.70549 -1.08278 4.17103e-18)
(4.37611 -1.30877 9.99735e-18)
(4.00648 -1.54103 0)
(3.61544 -1.72388 7.8799e-18)
(3.24349 -1.86715 0)
(2.91438 -1.97972 2.47768e-19)
(2.63506 -2.07121 -5.65618e-18)
(2.40373 -2.14819 5.73493e-18)
(2.21619 -2.21598 0)
(2.06709 -2.27694 0)
(1.95009 -2.33367 -9.30613e-18)
(4.58435 -1.07972 -6.31141e-18)
(4.64373 -0.939164 3.10698e-18)
(4.23055 -1.00351 4.93301e-19)
(3.81315 -1.19301 -8.68702e-18)
(3.43914 -1.38165 -3.46053e-18)
(3.08685 -1.54972 -3.46684e-18)
(2.77138 -1.69459 -6.45835e-18)
(2.49926 -1.8179 -1.78467e-17)
(2.26934 -1.92242 -5.21517e-18)
(2.0804 -2.0126 -1.0832e-17)
(1.92968 -2.08998 1.04672e-17)
(1.81172 -2.15828 9.6916e-18)
(3.97308 -0.3134 2.98467e-18)
(3.84222 -0.434025 -1.38459e-18)
(3.48531 -0.567772 2.63599e-19)
(3.16423 -0.771639 6.58761e-18)
(2.90727 -0.988579 0)
(2.65732 -1.18981 -5.79829e-18)
(2.42367 -1.36956 5.26168e-18)
(2.21216 -1.52746 4.77691e-18)
(2.02668 -1.66446 -1.50156e-17)
(1.86983 -1.78388 9.47772e-18)
(1.74305 -1.88462 -9.31823e-18)
(1.64285 -1.9715 0)
(3.09156 -4.52686 -1.19862e-18)
(2.96223 -4.73965 3.01653e-18)
(2.76905 -4.85779 -1.44482e-18)
(2.55494 -4.91701 -1.20733e-18)
(2.30239 -4.89619 8.44457e-19)
(2.04849 -4.80164 -7.14785e-20)
(1.78329 -4.61253 -6.8553e-20)
(1.53427 -4.33898 -1.12994e-19)
(1.29485 -3.96529 -7.79123e-19)
(1.03586 -3.45134 0)
(0.667785 -2.91225 0)
(-0.0495433 -2.68518 -5.80641e-19)
(3.43464 -3.72122 1.77051e-20)
(3.33798 -3.85762 1.41076e-18)
(3.1984 -3.9859 -8.99664e-19)
(3.02008 -4.10225 0)
(2.82521 -4.17573 1.12251e-18)
(2.62425 -4.19941 0)
(2.43029 -4.16239 9.66096e-19)
(2.25826 -4.0663 1.8959e-18)
(2.12322 -3.90729 -1.64371e-18)
(2.00833 -3.56517 0)
(1.90384 -3.24688 0)
(1.58039 -3.29299 4.956e-21)
(2.94387 -3.70796 6.25152e-19)
(2.85115 -3.79961 -5.99052e-19)
(2.7469 -3.88002 7.20127e-19)
(2.63619 -3.93976 0)
(2.52444 -3.96958 -8.58066e-19)
(2.42196 -3.96555 2.32472e-18)
(2.33755 -3.92351 -3.36528e-18)
(2.28291 -3.84441 -4.17001e-18)
(2.27033 -3.73197 2.70972e-18)
(2.29323 -3.53935 0)
(2.31696 -3.25805 4.77494e-19)
(2.26412 -3.41741 1.28685e-19)
(2.7972 -3.45845 8.53426e-19)
(2.71877 -3.52937 -1.96871e-18)
(2.63508 -3.59358 2.02143e-18)
(2.55072 -3.64447 -2.04143e-18)
(2.47235 -3.6771 0)
(2.40726 -3.68869 1.26825e-18)
(2.36334 -3.677 1.00199e-18)
(2.34963 -3.64329 6.34885e-19)
(2.37684 -3.59472 -1.58649e-18)
(2.46326 -3.50348 0)
(2.59388 -3.29117 -2.79051e-19)
(2.78225 -3.58548 4.41487e-19)
(2.60954 -3.26629 2.33404e-18)
(2.5372 -3.32709 -1.24306e-18)
(2.46743 -3.38331 0)
(2.40357 -3.43141 0)
(2.3502 -3.46926 1.21154e-18)
(2.31472 -3.49552 -9.81954e-19)
(2.30227 -3.50939 -1.93598e-19)
(2.31948 -3.51399 0)
(2.38223 -3.50979 -7.55617e-19)
(2.5061 -3.49517 8.53556e-19)
(2.69834 -3.34514 -9.39694e-19)
(3.00989 -3.76642 -1.92023e-19)
(2.44363 -3.07622 -5.26047e-18)
(2.37703 -3.13182 2.54261e-18)
(2.31759 -3.1857 5.15242e-18)
(2.26753 -3.23633 -5.82171e-21)
(2.2302 -3.28301 -6.29677e-18)
(2.21051 -3.32651 -2.71209e-18)
(2.21359 -3.3684 -1.91709e-19)
(2.2462 -3.41008 0)
(2.3204 -3.45449 0)
(2.45703 -3.50816 -8.57657e-19)
(2.70637 -3.44899 -6.2358e-19)
(3.12695 -3.93263 1.7077e-19)
(2.28529 -2.89439 2.97344e-18)
(2.22107 -2.94822 -5.89896e-18)
(2.16725 -3.0026 -2.62857e-18)
(2.12485 -3.0576 -1.56743e-19)
(2.09594 -3.11425 2.58008e-18)
(2.08405 -3.17452 2.5933e-18)
(2.09345 -3.24117 1.4944e-18)
(2.12983 -3.31711 1.47704e-18)
(2.20331 -3.40585 -1.666e-18)
(2.33303 -3.51658 0)
(2.56889 -3.54567 1.00868e-18)
(3.07361 -4.07254 -2.82776e-19)
(2.13531 -2.72008 0)
(2.07079 -2.77321 3.08633e-18)
(2.01901 -2.82846 0)
(1.97962 -2.88723 -1.56925e-19)
(1.95329 -2.95205 2.8535e-21)
(1.94219 -3.02613 6.34225e-18)
(1.94968 -3.11373 -6.24593e-18)
(1.98037 -3.21992 0)
(2.04266 -3.34999 -1.84987e-18)
(2.15519 -3.51732 1.04685e-18)
(2.37382 -3.63738 -1.92992e-18)
(2.91337 -4.17449 9.47309e-19)
(1.99422 -2.55217 3.82517e-18)
(1.92695 -2.6048 -3.693e-18)
(1.87431 -2.66016 -3.72303e-18)
(1.83439 -2.72075 3.65912e-18)
(1.80621 -2.79032 3.49692e-18)
(1.79039 -2.87309 -1.04017e-17)
(1.789 -2.97488 3.32112e-18)
(1.80517 -3.10273 0)
(1.84453 -3.26489 1.75602e-18)
(1.92312 -3.48011 0)
(2.09903 -3.69145 2.43665e-18)
(2.59896 -4.21872 -1.75498e-18)
(1.85955 -2.38718 0)
(1.78901 -2.43981 -8.63254e-18)
(1.73435 -2.49447 -4.47422e-18)
(1.69209 -2.55463 -7.88751e-18)
(1.65955 -2.62485 3.95586e-18)
(1.63574 -2.7099 3.77504e-18)
(1.62072 -2.81672 0)
(1.61598 -2.95408 0)
(1.62287 -3.13392 0)
(1.65324 -3.38519 0)
(1.7522 -3.6672 -7.49434e-19)
(2.14034 -4.19022 -9.44492e-20)
(1.72208 -2.21814 4.88186e-18)
(1.65235 -2.27335 4.47853e-18)
(1.59788 -2.32807 1.85168e-17)
(1.55427 -2.38638 4.78058e-18)
(1.51752 -2.45329 1.81915e-17)
(1.4852 -2.53366 -4.40877e-18)
(1.45499 -2.63446 -4.49649e-18)
(1.42617 -2.76471 0)
(1.39331 -2.94144 -4.47027e-18)
(1.36189 -3.20301 -2.42422e-18)
(1.32947 -3.53002 -1.80597e-18)
(1.35821 -4.03496 -9.47316e-26)
(1.56842 -2.0431 0)
(1.50912 -2.10453 0)
(1.46145 -2.1609 -1.84509e-17)
(1.4209 -2.21643 -1.35888e-17)
(1.38304 -2.27598 -4.37912e-18)
(1.34475 -2.3438 0)
(1.30233 -2.42627 4.50009e-18)
(1.25256 -2.52948 0)
(1.18156 -2.67462 -1.98558e-19)
(1.08233 -2.88975 2.34796e-18)
(0.882473 -3.23077 6.43236e-19)
(0.154642 -3.58283 3.87537e-18)
(-0.107118 -2.22296 8.53708e-20)
(-0.130776 -1.90974 2.38971e-19)
(-0.221886 -1.72275 -2.55542e-19)
(-0.35426 -1.59926 1.62206e-19)
(-0.451926 -1.67553 0)
(-0.893328 -1.87513 1.14834e-19)
(-2.07426 -1.65435 0)
(-3.00999 -2.27237 3.79569e-19)
(-3.21651 -2.73308 1.46264e-18)
(-3.60786 -3.02653 -4.46194e-19)
(-3.94176 -3.13661 -1.43346e-18)
(-4.27806 -3.17419 1.36701e-18)
(0.520164 -2.77346 3.62176e-19)
(0.271664 -2.34061 -3.19034e-19)
(-0.0872737 -2.43851 3.57759e-19)
(-0.742964 -2.51791 -1.1705e-19)
(-1.70159 -2.71204 -4.40807e-19)
(-2.60857 -3.147 -1.09864e-19)
(-3.0687 -3.22409 -7.6212e-19)
(-3.22411 -3.32844 -2.08936e-18)
(-3.23794 -3.40849 3.03437e-18)
(-3.36413 -3.45676 -6.20944e-19)
(-3.46125 -3.50306 7.85533e-19)
(-3.592 -3.492 5.77695e-19)
(0.410602 -3.08974 -2.80764e-19)
(-0.132539 -2.78433 0)
(-0.898409 -2.94756 0)
(-1.79406 -3.16117 -8.31402e-19)
(-2.55252 -3.30398 0)
(-3.01406 -3.36242 -1.01539e-18)
(-3.24212 -3.27271 7.97016e-19)
(-3.34092 -3.22009 1.91821e-18)
(-3.39139 -3.17703 -1.14077e-18)
(-3.4708 -3.13521 -1.72992e-18)
(-3.5351 -3.08502 -2.76346e-18)
(-3.61862 -3.02373 2.52415e-18)
(0.194168 -3.36122 -1.7535e-18)
(-0.482064 -3.24028 -1.30457e-18)
(-1.31704 -3.3948 1.58578e-18)
(-2.14125 -3.471 6.11272e-19)
(-2.71091 -3.43668 0)
(-3.00389 -3.34594 -3.49226e-18)
(-3.16609 -3.234 2.82536e-18)
(-3.2251 -3.14221 0)
(-3.25031 -3.06674 2.34025e-18)
(-3.28489 -2.99638 -3.61616e-18)
(-3.32992 -2.93413 2.34199e-18)
(-3.39043 -2.86978 3.0351e-19)
(-0.0950652 -3.51765 2.71279e-18)
(-0.772233 -3.52031 2.36039e-18)
(-1.54868 -3.599 5.40506e-19)
(-2.26173 -3.5527 0)
(-2.69232 -3.42803 -2.08058e-18)
(-2.92356 -3.29042 3.58622e-18)
(-3.0061 -3.14426 0)
(-3.04183 -3.02455 -2.07322e-18)
(-3.06876 -2.92472 -1.83121e-18)
(-3.10617 -2.83673 2.83429e-18)
(-3.152 -2.75789 0)
(-3.20685 -2.68363 -2.17167e-18)
(-0.323093 -3.65302 1.35803e-18)
(-0.965326 -3.72271 4.88087e-19)
(-1.65277 -3.72535 -1.5807e-18)
(-2.24276 -3.59923 -7.4269e-18)
(-2.60662 -3.41069 -1.68594e-19)
(-2.75696 -3.22477 5.75375e-18)
(-2.82359 -3.05328 0)
(-2.86016 -2.90916 6.28654e-18)
(-2.8909 -2.78891 -3.59219e-18)
(-2.92812 -2.68604 3.18466e-18)
(-2.97197 -2.59648 2.09514e-19)
(-3.02223 -2.51684 -7.58081e-21)
(-0.491597 -3.80464 -1.51175e-18)
(-1.07567 -3.92397 -1.18184e-18)
(-1.6659 -3.85369 0)
(-2.15937 -3.65873 6.77305e-18)
(-2.4396 -3.41972 -1.07594e-17)
(-2.56603 -3.18579 -1.91569e-19)
(-2.63055 -2.9819 -1.08953e-17)
(-2.67209 -2.81022 3.55691e-19)
(-2.70871 -2.66737 -3.97943e-18)
(-2.74881 -2.54753 -3.8199e-18)
(-2.79335 -2.44617 3.72993e-18)
(-2.84231 -2.35978 -3.11495e-18)
(-0.626665 -4.00986 -1.29009e-19)
(-1.12882 -4.16601 -1.58171e-18)
(-1.61094 -4.03112 0)
(-2.0031 -3.77964 5.09935e-18)
(-2.23735 -3.477 3.5296e-18)
(-2.35824 -3.19008 2.99042e-18)
(-2.42972 -2.94269 -3.90776e-19)
(-2.48113 -2.73554 -3.46782e-20)
(-2.52636 -2.56473 -4.71735e-18)
(-2.57175 -2.42412 -4.08399e-19)
(-2.61897 -2.30842 1.98141e-19)
(-2.66841 -2.21323 0)
(-0.724425 -4.19816 2.25359e-18)
(-1.15659 -4.44038 0)
(-1.50816 -4.23071 0)
(-1.80157 -3.92704 -4.26811e-18)
(-2.00096 -3.57163 3.70563e-18)
(-2.12868 -3.23173 -7.24251e-18)
(-2.2173 -2.93543 0)
(-2.28513 -2.68686 5.48699e-18)
(-2.3431 -2.48276 -2.26485e-19)
(-2.3968 -2.31726 4.35958e-18)
(-2.44862 -2.18423 -4.39488e-18)
(-2.50003 -2.07784 8.29123e-18)
(-0.833677 -4.54835 4.4289e-18)
(-1.08346 -4.70482 -1.42029e-18)
(-1.30972 -4.37489 -5.30545e-18)
(-1.54201 -4.00471 -8.95032e-18)
(-1.72465 -3.61337 0)
(-1.86769 -3.24131 6.57131e-18)
(-1.98004 -2.91224 -1.28514e-17)
(-2.0713 -2.63301 5.66266e-18)
(-2.14808 -2.40181 5.7277e-18)
(-2.21568 -2.21443 0)
(-2.27645 -2.06552 -5.19144e-18)
(-2.33299 -1.94872 -8.72438e-18)
(-1.07952 -4.58441 -6.30785e-18)
(-0.939462 -4.6434 1.40714e-18)
(-1.00405 -4.22991 4.41101e-18)
(-1.1937 -3.81206 3.76962e-18)
(-1.38236 -3.43776 -2.26206e-20)
(-1.55031 -3.08525 -1.05459e-17)
(-1.69502 -2.76969 1.24399e-17)
(-1.81812 -2.49754 2.35266e-17)
(-1.92242 -2.26764 -1.6341e-17)
(-2.01238 -2.07876 -1.08199e-17)
(-2.08952 -1.92814 9.95109e-18)
(-2.15761 -1.81032 0)
(-0.313156 -3.97313 4.63032e-18)
(-0.434163 -3.84243 1.76709e-18)
(-0.568249 -3.48538 1.79709e-18)
(-0.772381 -3.16409 6.96088e-18)
(-0.989388 -2.90686 0)
(-1.19059 -2.65667 5.58394e-18)
(-1.37021 -2.42282 -1.08769e-17)
(-1.52794 -2.21117 -4.93869e-18)
(-1.66471 -2.02558 -4.9748e-18)
(-1.78388 -1.86867 9.46949e-18)
(-1.88436 -1.74187 4.91023e-18)
(-1.97098 -1.64169 1.42817e-17)
(-4.52997 -3.09485 4.00129e-19)
(-4.74301 -2.96552 3.30106e-19)
(-4.86078 -2.77174 9.11537e-19)
(-4.92016 -2.55741 -2.46444e-18)
(-4.89897 -2.3044 9.46644e-19)
(-4.80437 -2.05027 0)
(-4.6148 -1.78474 -2.99842e-19)
(-4.341 -1.53553 2.07254e-19)
(-3.96675 -1.29584 0)
(-3.45241 -1.03646 8.03729e-20)
(-2.91238 -0.666343 0)
(-2.68726 0.0424901 0)
(-3.72299 -3.43732 -2.79101e-18)
(-3.85962 -3.34049 2.30532e-18)
(-3.98801 -3.20066 1.51089e-18)
(-4.10437 -3.02223 -5.9025e-19)
(-4.17778 -2.82721 0)
(-4.20137 -2.62612 0)
(-4.1642 -2.43203 1.19003e-18)
(-4.06794 -2.25989 -1.31185e-18)
(-3.90874 -2.12481 0)
(-3.56629 -2.00983 5.16279e-19)
(-3.24792 -1.90534 -8.01816e-20)
(-3.29293 -1.58073 -9.30217e-19)
(-3.70938 -2.94598 1.04923e-18)
(-3.80114 -2.85321 -1.73221e-18)
(-3.88159 -2.74892 0)
(-3.94131 -2.63815 -1.86365e-18)
(-3.97108 -2.52635 -2.03807e-18)
(-3.96697 -2.42382 4.52397e-18)
(-3.9248 -2.33936 -4.12127e-18)
(-3.84554 -2.28469 0)
(-3.73292 -2.27209 0)
(-3.54004 -2.29502 0)
(-3.25851 -2.31881 -4.60241e-19)
(-3.41751 -2.26626 1.1949e-19)
(-3.45949 -2.79881 -8.50941e-19)
(-3.53048 -2.72042 -3.04745e-19)
(-3.59472 -2.63676 0)
(-3.64558 -2.55244 -2.81665e-19)
(-3.67816 -2.47411 0)
(-3.68966 -2.40907 0)
(-3.67786 -2.36519 1.12572e-18)
(-3.64402 -2.35153 -1.43413e-18)
(-3.59529 -2.37881 1.72067e-18)
(-3.50391 -2.46527 0)
(-3.2915 -2.59595 -4.16284e-19)
(-3.58557 -2.78468 -4.60113e-19)
(-3.267 -2.61063 4.87129e-18)
(-3.32783 -2.5384 -1.24042e-18)
(-3.38403 -2.46875 2.22117e-18)
(-3.43209 -2.40501 1.00568e-18)
(-3.46989 -2.35176 -3.43303e-18)
(-3.49606 -2.31642 0)
(-3.50986 -2.30406 -1.25791e-18)
(-3.51436 -2.32138 0)
(-3.51005 -2.38424 0)
(-3.49537 -2.50818 8.52327e-19)
(-3.3452 -2.70049 5.04173e-20)
(-3.76636 -3.0124 5.40505e-19)
(-3.07658 -2.44419 -2.41686e-18)
(-3.13215 -2.37776 -1.76972e-19)
(-3.186 -2.3185 0)
(-3.23657 -2.26863 0)
(-3.28318 -2.2315 -3.98049e-18)
(-3.32662 -2.212 2.53798e-18)
(-3.36844 -2.21525 2.62539e-18)
(-3.41007 -2.24804 1.39077e-18)
(-3.45444 -2.32239 -3.36928e-18)
(-3.50806 -2.45914 -8.56437e-19)
(-3.4489 -2.70864 0)
(-3.93247 -3.12943 6.22294e-19)
(-2.89438 -2.28533 -6.09971e-18)
(-2.94815 -2.22133 2.53044e-18)
(-3.00246 -2.16773 2.79393e-18)
(-3.05739 -2.12558 1.4993e-19)
(-3.11398 -2.09692 -3.25844e-19)
(-3.1742 -2.08529 -2.93966e-18)
(-3.24081 -2.09493 -4.34028e-18)
(-3.31674 -2.13153 -1.58709e-18)
(-3.40548 -2.20519 1.52969e-18)
(-3.51624 -2.33505 0)
(-3.54541 -2.57099 1.71064e-18)
(-4.07231 -3.07588 -4.06483e-19)
(-2.71972 -2.13487 6.56036e-18)
(-2.77276 -2.0706 -3.55303e-18)
(-2.82792 -2.01908 -3.30028e-18)
(-2.88662 -1.97997 -6.05986e-18)
(-2.95138 -1.95395 6.01912e-18)
(-3.02543 -1.94314 -1.62287e-19)
(-3.11301 -1.95092 9.36384e-18)
(-3.21922 -1.98188 1.51547e-18)
(-3.34934 -2.04439 1.84762e-18)
(-3.51676 -2.15708 0)
(-3.63696 -2.37578 -1.19478e-18)
(-4.17421 -2.91538 -5.48052e-19)
(-2.55152 -1.99337 0)
(-2.60403 -1.92636 3.53091e-18)
(-2.65928 -1.87401 3.43569e-18)
(-2.71979 -1.83441 -3.52359e-18)
(-2.7893 -1.80655 -1.34419e-19)
(-2.87204 -1.79107 -3.60579e-18)
(-2.97384 -1.78999 -3.31611e-18)
(-3.10174 -1.80647 0)
(-3.26398 -1.84608 -1.754e-18)
(-3.47934 -1.92483 -1.10415e-18)
(-3.6909 -2.10077 3.97367e-18)
(-4.21837 -2.60065 -8.35316e-19)
(-2.38633 -1.85841 0)
(-2.43881 -1.78813 0)
(-2.49335 -1.73377 0)
(-2.55341 -1.69182 -1.22647e-17)
(-2.62356 -1.65963 7.87469e-18)
(-2.70859 -1.63617 7.6737e-18)
(-2.81543 -1.62149 0)
(-2.95284 -1.61707 -4.04687e-18)
(-3.13281 -1.62422 0)
(-3.38425 -1.65475 -2.38056e-18)
(-3.6665 -1.75371 -7.48934e-19)
(-4.18983 -2.14167 -1.08546e-18)
(-2.21725 -1.72086 0)
(-2.27229 -1.65134 0)
(-2.32685 -1.59714 9.49438e-18)
(-2.38504 -1.55382 1.33754e-17)
(-2.45186 -1.5174 3.75759e-19)
(-2.53219 -1.48543 4.53064e-18)
(-2.633 -1.45555 -2.20644e-18)
(-2.76331 -1.42706 6.34914e-18)
(-2.94017 -1.39446 4.46619e-18)
(-3.20194 -1.36319 2.25505e-18)
(-3.52926 -1.33073 -1.8052e-18)
(-4.03449 -1.35902 -1.68719e-18)
(-2.04233 -1.56734 0)
(-2.10356 -1.50818 0)
(-2.15972 -1.46071 -8.99783e-18)
(-2.21509 -1.42041 4.79206e-18)
(-2.27452 -1.38283 -4.37349e-18)
(-2.34227 -1.34485 -4.47939e-18)
(-2.42473 -1.30275 4.70408e-18)
(-2.52799 -1.25327 0)
(-2.67326 -1.18251 -4.58342e-18)
(-2.88858 -1.08342 -2.43843e-18)
(-3.22993 -0.883451 2.28576e-18)
(-3.58225 -0.154971 -3.88123e-18)
(-2.2229 0.108151 8.59575e-20)
(-1.90929 0.131749 0)
(-1.7231 0.223189 0)
(-1.59898 0.355022 1.18839e-18)
(-1.67389 0.452777 -9.4586e-19)
(-1.87495 0.889226 0)
(-1.65314 2.06592 0)
(-2.26567 3.00723 3.80742e-19)
(-2.72951 3.2148 6.11042e-19)
(-3.02214 3.60523 1.92215e-20)
(-3.13334 3.93967 -1.86019e-18)
(-3.17073 4.27562 9.82068e-19)
(-2.77328 -0.520135 -4.90826e-19)
(-2.34009 -0.272006 0)
(-2.43642 0.0853981 0)
(-2.51676 0.736437 -7.01304e-19)
(-2.70722 1.69471 9.06733e-19)
(-3.14321 2.60478 -1.2144e-18)
(-3.22139 3.06719 7.72396e-19)
(-3.32581 3.2239 8.5492e-19)
(-3.40626 3.23772 -3.37123e-19)
(-3.45428 3.36338 7.01343e-19)
(-3.50105 3.4605 0)
(-3.49003 3.59096 -8.31488e-19)
(-3.08961 -0.411811 2.80657e-19)
(-2.78334 0.129656 0)
(-2.94503 0.894294 0)
(-3.15854 1.79017 -5.36049e-19)
(-3.30197 2.55019 3.71157e-19)
(-3.36133 3.013 -1.32854e-18)
(-3.27157 3.24161 0)
(-3.21872 3.3408 -2.71542e-18)
(-3.17553 3.39108 3.17677e-18)
(-3.13359 3.47042 -9.34216e-19)
(-3.08346 3.5347 -1.92706e-18)
(-3.02214 3.61803 2.5323e-18)
(-3.36147 -0.195873 -8.74819e-19)
(-3.23967 0.478857 1.30552e-18)
(-3.39394 1.31354 0)
(-3.47066 2.13836 6.10873e-19)
(-3.43657 2.70967 -6.33861e-19)
(-3.3456 3.0032 1.09114e-18)
(-3.23354 3.16596 0)
(-3.14153 3.22526 -1.71394e-18)
(-3.06599 3.25042 -3.90901e-18)
(-2.9955 3.28488 2.53835e-18)
(-2.93312 3.32966 2.34855e-18)
(-2.8687 3.39003 -4.61527e-18)
(-3.51837 0.0924956 1.35043e-18)
(-3.52011 0.768803 -9.77639e-19)
(-3.59896 1.54557 1.79261e-18)
(-3.55308 2.25993 0)
(-3.42857 2.69133 -4.35443e-18)
(-3.29081 2.92341 4.10748e-18)
(-3.14447 3.00628 2.4612e-18)
(-3.0245 3.042 1.6456e-18)
(-2.92449 3.06884 0)
(-2.83633 3.10611 0)
(-2.75736 3.15184 0)
(-2.683 3.20661 -4.96522e-19)
(-3.65395 0.320854 3.3221e-18)
(-3.72317 0.962589 0)
(-3.72625 1.6504 -1.58389e-18)
(-3.60016 2.24165 3.84238e-18)
(-3.41163 2.60603 2.3716e-18)
(-3.22565 2.75685 -5.48061e-18)
(-3.05392 2.82365 2.54882e-18)
(-2.90958 2.86024 -8.57751e-18)
(-2.78912 2.89097 -5.32387e-20)
(-2.68607 2.92814 -2.6118e-19)
(-2.59638 2.97194 2.09943e-19)
(-2.51661 3.02219 8.24442e-18)
(-3.8057 0.489576 -5.35824e-18)
(-3.92483 1.07356 3.16815e-18)
(-3.85508 1.66415 -4.76859e-18)
(-3.6602 2.1583 -3.16955e-18)
(-3.42104 2.43926 -6.77311e-18)
(-3.18701 2.56594 -3.72225e-18)
(-2.9829 2.63055 -5.36066e-18)
(-2.811 2.67214 8.74619e-18)
(-2.66796 2.70877 0)
(-2.54796 2.7489 7.20121e-18)
(-2.44646 2.79347 -9.9628e-18)
(-2.35992 2.84246 3.32097e-18)
(-4.01086 0.625522 -2.99474e-18)
(-4.16713 1.1274 -4.75283e-18)
(-4.03271 1.60974 7.40447e-18)
(-3.78142 2.00231 0)
(-3.47867 2.23696 -4.28982e-18)
(-3.19159 2.35806 6.33451e-18)
(-2.94398 2.42967 -2.9138e-19)
(-2.73663 2.48115 3.49246e-20)
(-2.56564 2.52645 -4.48824e-18)
(-2.42487 2.57192 -8.13039e-18)
(-2.30902 2.61921 3.5751e-18)
(-2.21369 2.66872 -3.54081e-18)
(-4.19889 0.724062 2.25368e-18)
(-4.44153 1.1558 0)
(-4.23222 1.50734 0)
(-3.92883 1.80088 0)
(-3.5734 2.00051 3.70931e-18)
(-3.23338 2.12842 0)
(-2.9369 2.21719 -3.19086e-19)
(-2.68815 2.28515 1.09825e-17)
(-2.4839 2.34322 1.86239e-19)
(-2.31825 2.39703 4.36657e-18)
(-2.18507 2.44897 -4.24422e-18)
(-2.07853 2.50048 1.23221e-17)
(-4.549 0.833867 5.55237e-20)
(-4.70553 1.08303 7.57712e-18)
(-4.37592 1.30907 -2.44033e-18)
(-4.00604 1.54135 0)
(-3.61482 1.72414 0)
(-3.24276 1.86734 0)
(-2.91361 1.97982 0)
(-2.63429 2.07125 5.83796e-18)
(-2.40299 2.14818 -2.18661e-17)
(-2.21549 2.21592 -1.04278e-17)
(-2.06646 2.27682 9.80481e-18)
(-1.94954 2.3335 5.08525e-18)
(-4.58438 1.08003 -6.30654e-18)
(-4.64364 0.939267 -4.32424e-18)
(-4.23025 1.0036 -2.6102e-18)
(-3.81263 1.19311 0)
(-3.43848 1.38175 0)
(-3.08607 1.54978 7.1071e-18)
(-2.77056 1.69461 -1.27441e-17)
(-2.49842 1.81787 2.37378e-17)
(-2.26852 1.92235 1.65362e-17)
(-2.07961 2.01248 1.03166e-17)
(-1.92895 2.08979 -9.96077e-18)
(-1.81106 2.15804 5.03884e-19)
(-3.97266 0.313322 -1.56226e-18)
(-3.84168 0.433861 0)
(-3.48469 0.567673 3.45646e-18)
(-3.16354 0.771614 -1.03708e-17)