/*--------------------------------*- C++ -*----------------------------------*\
| =========                 |                                                 |
| \\      /  F ield         | OpenFOAM: The Open Source CFD Toolbox           |
|  \\    /   O peration     | Version:  4.0                                   |
|   \\  /    A nd           | Web:      www.OpenFOAM.org                      |
|    \\/     M anipulation  |                                                 |
\*---------------------------------------------------------------------------*/
FoamFile
{
    version     2.0;
    format      ascii;
    class       volScalarField;
    location    "58";
    object      p;
}
// * * * * * * * * * * * * * * * * * * * * * * * * * * * * * * * * * * * * * //

dimensions      [0 2 -2 0 0 0 0];

internalField   nonuniform List<scalar> 
146404
(
-7.41193
-3.27497
-11.3397
-7.01824
-12.6396
-7.50873
-3.81987
-3.41747
-6.5148
-20.858
-1.84527
-7.85796
-4.28258
-10.8796
-6.19767
-3.23834
-7.49796
-6.04132
-3.85296
-9.99708
-7.99327
-11.1586
-7.84456
-3.96338
-6.07414
-8.01904
-11.7465
-9.46255
-4.17357
-2.24463
-8.70091
-18.7995
-12.004
-3.59575
-1.51434
-7.60215
-16.0036
-10.1667
-3.75794
3.70724
-0.882377
-20.0609
-3.64355
2.58678
-5.90878
-15.4197
-10.1811
-3.966
0.858097
-4.35275
-10.6864
-9.28943
-4.53221
-0.402457
-3.29142
-8.99492
-8.09708
-3.87864
-2.59506
-2.64372
-8.07269
-6.52939
-3.60833
-2.83435
-7.40711
-2.65245
-2.48279
-8.57292
-17.2105
-10.8622
-5.02083
1.96678
-9.0031
-24.893
-16.6189
-5.32958
3.96157
-10.9766
-33.9255
-22.0537
-6.48812
6.36118
-8.23865
-26.7598
-16.8157
-7.86147
13.5272
-6.92625
-32.6617
-8.32636
11.3159
-8.67996
-27.0971
-22.5931
-8.79545
13.9606
-5.8458
-28.2717
-23.4469
-9.28716
8.58971
-2.01047
-16.8467
-15.5817
-6.3588
5.82286
-3.77271
-14.0042
-9.2562
-4.67311
5.34347
-2.28108
-12.0807
-2.38239
0.825228
-9.01885
-5.15512
-2.7777
-7.18933
-9.77532
-13.8322
-8.52942
-3.1195
-0.475029
-8.56587
-21.2582
-10.6177
-4.13422
7.4584
-2.6817
-28.7738
-10.0787
-6.95371
12.7676
-11.7243
-33.7807
-24.4239
-8.07734
21.1973
-30.9099
-53.6637
-41.6776
-9.12955
35.0927
-33.6334
-66.8021
-36.3465
-10.8441
46.4409
0.530529
-72.3313
-12.486
37.6539
-24.4288
-70.0855
-46.5829
-14.0097
28.5132
-23.994
-59.1954
-49.3354
-15.0151
24.8605
-2.85355
-34.5822
-33.9183
-12.6735
18.2152
4.72077
-27.8571
-15.207
-8.53584
9.2256
0.0177387
-15.1378
-11.0697
-5.39787
3.1671
-0.0687366
-7.35469
-7.2018
-3.93013
0.758182
-4.15374
-5.08732
-3.53509
-8.85927
-9.91054
-12.49
-8.95621
-3.84208
-2.68368
-10.5516
-22.6072
-12.0844
-3.77772
3.69446
-11.8039
-29.9059
-19.6142
-7.04915
25.9479
-9.25971
-54.2241
-23.5543
-10.539
56.8752
-23.126
-98.7641
-71.3564
-10.2164
99.9817
-83.735
-161.869
-100.223
-15.3587
111.71
-106.202
-193.207
-99.7913
-21.1989
141.113
-117.645
-92.717
-30.8068
118.204
-107.076
-180.875
-118.752
-36.6766
97.9468
-61.2543
-142.781
-131.959
-36.149
61.6407
-3.03776
-91.9466
-146.458
-24.1609
35.5981
8.63857
-53.8448
-46.4604
-14.4306
16.1973
0.106864
-21.8235
-20.4697
-8.0028
9.04779
-0.1111
-11.7381
-11.1685
-4.60667
2.66663
1.38291
-5.97547
-7.23774
-3.78365
-11.578
-9.80053
-12.8847
-7.74846
-3.63359
-3.609
-11.9141
-17.1139
-12.626
-4.35733
0.877603
-10.7363
-36.3646
-17.5773
-5.49315
15.4849
-26.7536
-91.2041
-29.3046
-6.69925
60.9006
-96.7201
-171.406
-72.3767
-12.3338
143.002
-87.7828
-171.541
-132.576
-14.6843
309.821
435.132
-99.615
-14.0829
380.875
433.756
435.079
410.048
384.252
430.641
434.285
429.103
308.057
371.476
429.959
433.523
421.821
304.571
428.329
-119.341
-31.5168
176.699
-168.969
-47.5193
67.9864
-37.751
-110.898
-108.596
-25.1853
24.4408
-2.20654
-45.1017
-44.9053
-13.4149
14.129
5.21999
-20.4853
-23.8724
-7.69304
7.83236
0.214197
-9.63045
-9.40343
-5.12896
1.0962
0.657108
-6.39542
-5.33361
-3.27367
-3.3159
-8.64011
-19.4377
-6.06842
-2.70645
0.0204623
-11.2181
-23.2651
-12.8517
-4.07283
8.53256
-12.8167
-40.8703
-22.9025
-8.19023
40.2553
-76.8066
-125.132
-44.8462
-7.66081
132.818
-94.0905
-208.763
-98.0283
-10.7251
374.42
437.016
437.815
-10.5689
412.539
430.245
433.853
406.004
304.947
413.691
426.748
431.355
437.385
332.864
412.36
425.251
431.494
424.095
283.83
408.527
424.845
429.689
415.543
332.819
389.859
425.282
430.567
398.757
296.272
345.808
430.976
432.65
423.651
-39.6133
169.278
-67.2706
-123.491
-128.296
-55.6075
48.5067
-21.8237
-86.1874
-80.4462
-19.1839
24.2053
3.96819
-30.6521
-27.3411
-8.47802
12.751
3.17308
-17.2894
-13.0448
-4.35889
7.18534
1.64076
-13.4525
-3.98802
-2.87429
-2.59511
-7.90645
-16.5658
-8.79925
-3.97186
5.0541
-3.02759
-25.6006
-10.8263
-5.61546
26.1415
-28.6708
-10.6228
83.0864
-77.1246
-159.157
-58.3883
-14.2115
303.961
-186.169
-84.5295
-10.1284
413.632
431.183
436.02
391.788
277.102
416.979
427.653
435.095
378.895
259.957
415.027
423.979
433.888
431.526
334.041
413.215
421.237
429.764
431.658
213.048
412.53
422.244
431.609
454.5
309.824
408.087
423.111
430.933
349.148
299.772
385.695
425.978
427.385
428.692
316.333
300.792
427.713
432.211
-138.218
-45.6147
89.4969
-42.1486
-142.608
-131.438
-21.4656
36.7355
70.563
-99.1793
-11.6945
16.3878
9.08595
-23.2529
-14.73
-5.28019
7.3005
1.1735
-10.6039
-7.23235
-3.95052
2.37204
-6.64638
-4.66493
-2.77589
-6.50847
-9.49703
-7.10347
-3.91894
-0.771381
-7.46027
-18.1908
-11.328
-3.73818
6.50709
-9.85862
-34.2479
-20.5407
-6.88229
28.9875
-27.7167
-62.6559
-36.5453
-10.2883
95.1983
-80.2313
-177.298
-77.7618
-24.3169
379.955
436.769
437.948
438.89
-19.1766
416.98
430.115
434.958
388.325
264.318
416.915
425.915
433.714
459.752
173.2
414.749
421.237
425.208
301.346
241.312
408.893
417.374
413.185
338.373
256.267
410.637
418.23
420.304
294.369
233.052
411.239
421.725
430.123
440.815
168.874
398.341
422.733
427.771
412.649
257.698
347.15
430.217
433.33
386.036
317.798
127.486
-59.3529
-126.378
-146.17
-47.3633
28.5106
-0.753703
-55.1605
-38.3562
-12.6946
15.0294
0.681108
-16.8578
-17.5004
-7.01606
8.12022
2.90889
-8.6106
-10.0804
-4.7937
0.622488
2.2349
-3.82318
-5.19355
-3.34149
-13.1714
-6.36553
-9.23997
-7.06635
-3.66905
-0.590161
-7.46544
-17.8169
-11.3108
-3.81356
6.72584
-10.2425
-34.4895
-20.8944
-7.16982
29.5224
-33.4832
-76.7546
-46.5268
-10.7819
116.683
-62.1897
-161.576
-95.7354
-23.898
385.541
437.637
437.568
420.484
417.572
430.924
435.931
441.585
344.585
417.691
426.283
442.04
447.433
196.096
412.407
421.496
417.876
335.614
276.04
408.062
417.448
404.142
337.961
263.999
407.086
417.981
412.199
335.483
259.901
412.542
422.251
428.386
455.467
209.453
401.802
423.489
428.834
441.616
259.259
353.357
429.704
432.085
415.82
321.658
139.168
-59.3711
-133.275
-137.199
-39.7343
25.6804
-7.1189
-49.16
-44.0277
-13.3526
16.2059
0.963044
-19.2209
-19.2421
-7.68271
8.55043
3.01503
-8.8596
-11.072
-5.10457
0.700495
2.23244
-4.05377
-5.5832
-3.73752
-6.26405
-9.09362
-6.62158
-3.9079
-2.44587
-6.30902
-13.9488
-9.865
-3.76837
5.98803
-5.78449
-25.0777
-17.8046
-6.34852
32.3843
-12.8607
-53.6036
-38.4514
-11.2396
119.257
-77.3309
-160.538
-105.439
-18.3241
374.102
436.875
438.251
413.843
-15.8065
415.577
431.734
435.597
426.894
277.977
418.925
428.562
438.901
440.597
205.085
416.865
423.622
428.064
329.493
235.731
413.422
420.157
417.754
335.68
270.204
414.894
421.199
424.976
332.753
261.458
412.11
425.077
433.512
440.174
144.096
398.686
426.712
430.038
352.646
265.103
337.738
433.862
433.517
422.795
321.483
108.013
-52.4923
-118.154
-162.122
-17.7696
35.843
2.33071
-55.0116
-58.0199
-11.2665
16.0745
4.365
-18.3738
-19.6567
-5.42172
6.47825
1.51289
-8.85903
-9.1669
-4.76894
-0.0643426
1.83554
-4.2158
-5.7359
-3.42423
-0.59685
-6.38788
-15.6136
-6.86486
-3.21316
7.3858
-4.41691
-24.8957
-5.9363
-5.36355
25.6402
-15.1095
-8.39317
73.2543
-47.4347
-149.038
-90.0366
-14.01
286.388
-147.533
-117.362
-14.2258
396.995
433.409
436.456
438.616
294.48
415.883
430.174
435.774
432.649
225.766
418.171
428.675
433.656
447.095
333.334
417.935
432.009
439.422
444.495
228.159
414.272
426.847
433.562
430.966
258.489
407.723
426.971
431.3
374.074
261.497
384.475
431.5
430.899
373.519
300.86
291.816
431.873
434.175
-121.82
-28.3747
64.3345
-49.719
-187.625
-107.824
-13.6615
24.7482
3.23456
-61.9839
-7.83472
11.537
11.0657
-26.7322
-18.5587
-4.80856
4.90974
4.40436
-13.0796
-9.87718
-3.83512
1.13601
-7.64732
-5.84338
-3.1712
-3.84932
-8.3122
-17.9293
-7.18148
-3.03998
0.542747
-9.10891
-18.557
-12.2927
-4.99205
7.99279
-10.794
-35.4063
-25.4523
-6.80951
33.6221
-37.9749
-96.6874
-56.1496
-9.49395
125.403
-69.4038
-142.166
-117.193
-20.8093
332.122
439.026
439.608
-20.0609
393.323
434.056
435.95
430.297
266.665
405.535
430.133
434.409
447.532
253.982
407.466
429.693
438.681
359.308
172.379
402.276
429.273
432.918
441.932
263.389
384.184
432.692
431.756
403.563
291.726
336.576
434.711
434.814
341.841
-24.6635
92.0821
-101.419
-180.026
-123.24
-13.1503
9.57594
-13.1
-49.6396
-31.5014
-9.91934
3.79808
-7.81531
-34.7937
-25.1798
-6.88089
2.12457
-9.55352
-19.5509
-12.0993
-5.1015
-0.180384
-6.24857
-18.3371
-6.95872
-3.24434
-11.8663
-7.70073
-11.0207
-7.28959
-3.83422
-4.01079
-8.13708
-12.665
-9.73483
-4.30291
1.84664
-7.5874
-21.9154
-14.5105
-4.6201
15.8499
-10.1245
-36.4048
-31.9342
-8.63547
50.7777
-39.3589
-114.225
-71.4623
-11.9734
122.755
-60.2264
-154.562
-120.02
-27.101
283.242
435.848
-130.971
-101.324
-26.4322
353.782
435.423
437.942
394.222
361.246
435.95
438.425
403.29
321.662
350.861
435.432
436.575
423.099
282.009
434.389
-103.991
-24.0224
94.3288
-130.111
-13.4223
32.9354
-36.7204
-88.6269
-54.3465
-9.5825
3.52765
-9.06793
-27.9256
-17.4908
-5.64824
-1.7985
-9.59341
-17.537
-11.7233
-4.46237
-3.59916
-7.96179
-13.5403
-9.98973
-4.44988
-7.1159
-7.10267
-11.4295
-7.82121
-3.79089
-7.94119
-7.2542
-10.0745
-7.67808
-3.39932
-2.51418
-6.90149
-14.5951
-9.62916
-3.7192
4.88292
-7.37998
-22.9456
-16.6352
-5.43281
21.8728
-1.32865
-45.8191
-24.3421
-7.95026
37.192
-27.0414
-80.4855
-45.1358
-10.8572
52.6687
-75.5613
-137.015
-73.4664
-13.0629
74.194
-132.079
-147.807
-72.7375
-20.7344
81.3491
-129.836
-91.6097
-16.7606
75.3598
-110.937
-171.56
-86.7765
-8.86999
48.1045
-74.2887
-141.018
-73.8551
-10.9513
28.9328
-18.7419
-85.9638
-55.1547
-8.92245
13.0997
-8.65843
-53.0207
-24.5424
-5.92733
1.58146
-8.21279
-22.9229
-16.3932
-4.59904
-3.54355
-8.40902
-14.8748
-11.1082
-4.86755
-6.89664
-7.63253
-11.4354
-9.29955
-4.56834
-5.40386
-7.532
-12.4
-7.81957
-3.42196
1.04457
-5.79787
-19.3448
-10.1547
-3.93281
4.85047
-5.87201
-26.1506
-9.67162
-4.82387
4.81631
-8.10401
-25.7415
-17.2057
-5.91818
6.40849
-11.7794
-34.8735
-21.4514
-6.95871
20.5932
-16.7672
-47.2196
-32.8846
-7.68466
26.7417
-25.6543
-41.1257
-7.54461
7.82871
-20.5828
-52.6462
-22.5072
-6.89644
3.41932
-9.58159
-29.7857
-19.3904
-6.50693
5.27222
-9.10259
-27.7687
-21.181
-5.45135
2.30731
-4.51486
-28.4955
-14.832
-3.87544
-1.98882
-6.54739
-20.5498
-10.0556
-3.66822
-6.60899
-7.91577
-12.7879
-8.89294
-4.32728
-7.46839
-10.1036
-7.67663
-4.34168
-3.14151
-1.16085
-2.4935
-3.19846
-7.29984
-13.6333
-8.48988
-3.95098
-0.48348
-6.52428
-15.4477
-11.2857
-4.89592
-0.635482
-7.69147
-18.7032
-11.3221
-3.71499
3.10256
-7.18441
-21.7317
-15.2144
-3.9177
6.83116
-9.511
-17.6523
-3.83711
-0.857246
-11.9131
-24.0616
-10.6054
-3.89059
-0.0767579
-8.63263
-16.6423
-10.6612
-3.94372
-3.5426
-8.98401
-16.1498
-11.4583
-4.82624
-5.16525
-8.92378
-15.1562
-9.31691
-3.9902
-4.20904
-1.19359
-22.1861
-11.5091
-2.93806
-14.0734
-6.18513
-3.34633
-10.6247
-6.70597
-10.1422
-6.47618
-3.37143
-6.90752
-6.75534
-9.77779
-8.01791
-4.04335
-5.02309
-6.63043
-12.1913
-8.96272
-3.98199
-3.31128
-7.25711
-14.319
-8.89956
-3.83862
-0.147236
-9.05791
-10.4002
-3.97882
-4.24568
-10.2975
-15.2591
-9.18535
-4.01317
-7.22402
-9.36377
-12.4157
-9.41952
-4.11445
-8.65205
-8.70954
-11.793
-9.26171
-4.53778
-10.8211
-8.33742
-11.5387
-7.83278
-3.97113
-11.8877
-6.42586
-11.1852
-7.39401
-3.48033
-9.21372
-9.15274
-4.8094
-2.70558
-12.44
-8.59658
-13.6983
-7.92552
-3.71832
-7.70667
-4.20037
-10.9756
-11.5162
-8.80325
-7.72237
-4.38475
-3.70198
-0.200533
-8.52804
-0.468253
-11.6131
-11.4827
-19.4494
-12.0144
-8.92903
-19.8752
-9.62393
-7.58061
-4.34003
-9.65675
-2.7078
-3.70264
-0.231248
-2.35488
-0.310081
-8.09353
9.87347
-2.65625
-6.41062
-3.78566
-10.766
-11.1698
-7.50029
-21.2115
-2.46958
-5.86703
-3.50658
-2.17859
-0.281361
-3.08359
-0.263508
-3.37995
-4.24465
-10.0384
-10.5253
-7.44168
-5.93124
-3.65421
-3.15732
-0.314866
-7.60853
-7.85842
-10.7652
-11.0714
-8.57964
-7.41107
-4.42761
-3.73329
-0.0950767
-13.8997
-7.70772
-9.37489
-7.56525
-7.89295
-10.5758
-7.8719
-9.60122
-10.8559
-8.5596
-10.5008
-9.30668
-7.4581
-4.57476
-8.12166
-5.30773
-3.89979
-0.195634
-4.08964
-0.687186
-8.63162
-7.37226
-6.64089
-6.92979
-7.70867
-9.60462
-7.61582
-10.4007
-10.4961
-9.65233
-11.7805
-10.5854
-8.50997
-5.68016
-9.48248
-6.16085
-4.30268
-0.665755
-4.58488
-0.819042
-11.7942
-6.81132
-6.34712
-6.5194
-5.16012
-5.69807
-7.13749
-10.7977
-7.56243
-9.84896
-7.50213
-11.073
-9.34574
-11.6222
-9.55197
-12.5162
-11.4598
-14.0719
-12.8368
-5.316
-7.47001
-4.72713
-9.21283
-6.77072
-9.94042
-7.067
-3.59029
-0.520355
-3.99685
-1.52889
-4.06442
-1.59172
-6.4919
-4.41948
-0.291499
-3.79805
-4.4701
-0.893276
0.331288
-11.9215
-8.34386
-19.8083
-7.82474
-12.0658
-13.0597
-23.0347
-9.81908
-20.1227
-10.9124
-13.9105
-11.8836
-23.9415
-13.5527
-4.89689
-5.29473
-3.47082
-8.30994
-6.51962
-5.72848
-3.6774
-0.577247
-2.58235
-0.564747
-4.13315
-1.75844
-3.01019
-1.3602
5.00593
-7.46975
-2.57416
1.41445
10.1978
-0.182248
-0.889182
-4.06493
-10.4759
-2.10444
-3.81251
-11.8039
-11.1497
-8.16852
-15.7044
-12.7015
-11.1454
-2.6263
-5.76702
-3.90839
-19.4178
-4.68979
-8.4793
-5.37236
-0.453662
-3.0908
-0.541353
-3.6033
-1.44057
-3.92307
-1.75535
-3.49588
-3.58923
-0.917855
-2.13269
-1.54113
-2.58763
-10.0059
-3.7828
-7.2688
-5.23667
-9.87029
-5.12598
-7.92349
-8.48516
-7.82234
-6.986
-12.6591
-11.5055
-10.0808
-9.2799
-4.05775
-6.14481
-4.14734
-7.70606
-5.44592
-7.95469
-6.03246
-0.591507
-3.58721
-0.303346
-3.78492
-1.64426
-3.94871
-1.67956
-1.38426
-2.37633
-2.42325
-2.40279
-6.85538
-4.0908
-6.23464
-3.25497
-6.44768
-6.74921
-8.7296
-8.9409
-7.84974
-8.26151
-4.19515
-7.52026
-5.78842
-7.58353
-5.39632
-0.277967
-3.62414
-1.47918
-4.19127
-0.75178
-2.80387
-2.40679
-4.57212
-2.1949
-3.16128
-6.22587
-2.52533
-5.9905
-7.59386
-7.84823
-7.39397
-7.14718
-7.2569
-5.09579
-6.15456
-4.46819
-4.0176
-0.708973
-3.59738
-0.616091
-5.2173
-2.11309
-2.43792
-6.85336
-7.54862
-7.0372
-6.34622
-4.14906
-3.60754
-0.357273
-7.25033
13.1815
-4.32893
-3.07899
-2.6048
-0.487692
-12.1551
-7.5249
-5.67275
-1.75712
-5.74607
-5.64491
-7.80139
-11.2669
-11.3349
-8.84665
-13.6275
-11.6641
-9.39087
-12.7914
-14.9121
-12.5865
-7.29636
-4.62686
-1.68421
-3.92461
-7.64815
-5.00032
-3.58935
-0.471082
-2.98057
-0.559695
-3.29512
-1.31772
-7.45327
-7.21193
-6.89318
-5.47968
-5.54223
-4.45976
-5.47022
-10.6016
-8.11617
-9.93922
-8.49697
-12.3971
-8.27549
-11.9043
-9.56453
-11.5159
-11.1166
-14.1331
-12.9062
-14.2607
-13.2543
-5.13794
-8.50724
-6.57115
-9.12101
-6.469
-10.2813
-7.37339
-0.644102
-3.73465
-1.48748
-4.16563
-1.78491
-4.33775
-1.74088
-13.3856
-12.8487
-23.806
-7.88883
-16.5323
-6.07517
-32.8544
-14.2732
-25.0066
-14.5337
-20.333
-18.1635
-33.5167
-21.4573
-3.71509
-13.08
-6.88664
-2.7349
-18.0671
-16.8982
-14.0871
-12.7433
-24.1358
-20.3913
-18.8472
-0.902503
-2.25765
-1.72728
3.55729
1.13836
2.36674
1.20903
-1.57933
1.95453
1.18738
3.17899
4.08296
-6.87854
-3.53089
-9.09781
-0.574007
-15.5888
-7.77961
-11.7657
-10.7699
-15.8022
-9.49964
-4.49784
-7.77025
-5.36493
-4.96938
-4.75634
-0.677671
-3.66843
-1.62215
-3.31269
-0.657886
3.1277
7.05205
1.75
-17.4394
0.990773
-9.9476
-17.804
-9.99248
-10.9547
-7.09701
-7.91289
-2.58589
-5.11275
-2.53927
-2.25448
-0.554477
-2.26798
-0.333303
-10.5728
-8.86048
-9.45222
-11.6529
-12.3018
-9.68656
-7.98948
-4.70527
-3.56872
-0.594834
-5.55376
-0.497842
-8.93949
-8.25418
-5.02931
-5.65014
21.2757
-9.71748
-12.3418
-9.16869
-17.5944
-36.3987
-13.3552
-11.414
-18.0265
-12.2871
-0.132806
-3.65661
-7.38907
-5.12941
-7.18356
-5.14215
-2.78509
-0.562054
-3.11759
-1.252
-3.30069
-1.39697
-7.64741
-16.9077
-8.27046
-20.7283
-4.26275
-29.1799
-17.5521
-13.4659
-20.8625
-12.283
-27.6891
-18.7423
-21.8241
-6.29208
-35.3624
-13.5321
-33.736
-9.69969
-65.1095
-24.7868
-35.8205
-24.0737
-40.7245
-37.272
-60.0973
-46.5017
-3.0004
-21.4005
-1.3669
-3.06403
-39.5194
-26.9411
-24.162
-23.3506
-52.0637
-44.4256
-40.6773
-12.5213
0.505273
-16.7762
2.88723
-21.0741
5.86228
-17.8049
-13.0881
-17.0054
-9.90814
-24.1668
-21.3182
-19.1025
-15.2265
9.19859
-2.54552
2.34374
6.91428
7.35905
3.93609
3.52344
0.844167
-8.81277
3.13826
-12.9586
-0.195388
-6.23297
-10.5795
-10.6426
-7.90136
-16.2851
-13.8564
-10.1523
-9.82769
-3.37676
-4.91593
-3.27076
-9.51388
-5.44688
-6.96757
-5.27797
-1.12054
-2.5846
-0.615484
-3.80048
-1.62213
-3.78048
-1.79135
2.01995
2.27321
1.84281
0.990006
-7.99827
0.408372
-5.50255
0.608752
-3.52258
-6.86417
-7.48947
-7.80074
-4.42427
-5.76723
-3.28837
-6.94373
-4.61005
-5.12877
-4.21724
-0.379683
-3.79136
-0.789878
-3.56754
-0.365733
-12.8614
-9.69853
-9.52479
-10.699
-11.1223
-9.31251
-7.97952
-5.08783
-3.86562
-0.57753
-9.59015
-8.83717
-11.0566
-9.49999
-8.02468
-8.42813
-9.73968
-10.9972
-9.69156
-11.0463
-9.98502
-12.0679
-12.1287
-10.8764
-11.4028
-9.82121
-13.2695
-12.0124
-8.12969
-6.00639
-8.39525
-5.36261
-9.05728
-6.52833
-3.52464
-1.38898
-3.93101
-0.623172
-3.68339
-1.41624
-21.2115
-7.03669
-33.4243
-10.6195
-20.9595
-7.09559
-36.4103
-15.5657
-29.7186
-24.5175
-24.8721
-21.9625
-38.4575
-29.0842
-30.2623
-10.8608
-27.6652
-3.43231
-45.7407
-8.30836
-54.4277
-19.6352
-30.0162
-29.8975
-45.8914
-30.9861
-64.1677
-52.4856
-57.7277
-8.27187
-76.5312
-114.658
-163.325
-95.1799
-179.453
-57.982
-70.1152
-58.1602
-144.677
-102.942
-178.744
-97.3125
-9.11407
-53.1537
-66.1385
-84.6913
-165.188
-63.757
-59.464
-55.0189
-96.8937
-174.039
-114.317
-22.0711
3.22889
-24.302
2.62164
-64.7163
46.0396
-39.0203
-28.6919
-29.7022
-83.2586
-118.086
-71.1337
-25.6985
4.49755
-17.0142
17.142
-50.571
4.94303
-16.9817
-23.2941
-20.3346
-17.9728
-49.3493
-54.7547
-21.6482
-25.9758
3.00599
-4.08852
1.34171
5.6637
3.93898
2.89729
2.57378
-3.71903
0.529661
-2.89955
0.843491
-4.19356
1.03565
-2.11218
-8.4321
-4.75313
-6.10184
-8.94346
-10.1729
-6.42518
-7.71548
-5.72058
-5.33276
-4.46621
-9.76794
-7.20697
-7.78407
-6.46231
-1.80168
-3.48268
-0.651289
-4.85664
-2.17556
-4.10422
-1.81659
1.02113
1.40312
1.69176
-3.21051
1.06814
-2.98185
-5.64201
-5.27474
-6.64004
-4.20413
-6.74258
-4.80249
-0.40469
-3.83028
-0.789174
-10.0286
-12.2327
-12.345
-8.62406
-8.19178
-4.43205
-4.07891
0.0124162
-11.515
-9.59489
-15.1401
-9.56893
-8.18987
-9.05675
-9.71542
-11.0054
-9.75321
-12.0696
-10.2204
-11.78
-11.4303
-9.8442
-12.1814
-8.73784
-12.7154
-11.4397
-8.41472
-5.41839
-7.95367
-4.43776
-8.51294
-5.99251
-4.04149
-0.609454
-3.89868
-0.12207
-3.42118
-1.26423
-52.1664
-11.0791
-73.1632
-41.5757
-97.2369
-78.0292
-159.697
-39.2258
-78.3484
-81.5989
-106.763
-79.9687
-166.255
-150.102
-87.0132
-84.4957
-112.465
-3.91433
-106.009
-123.684
-106.293
-149.027
-160.95
-158.241
-134.288
-127.045
-125.039
-88.3148
-179.35
-128.909
433.663
436.083
-164.988
-192.113
-134.402
-135.222
-125.258
435.471
-42.4877
-97.8257
-44.0344
-95.674
-31.1362
-27.1692
-3.76609
-17.7656
-5.22092
-17.2158
-3.18036
-16.1684
-1.45439
-102.7
139.154
-175.962
333.857
429.515
345.277
425.048
-187.299
-154.484
-183.247
435.191
436.103
432.564
435.11
-121.816
-182.947
-92.9945
435.384
387.306
434.752
364.605
-48.6381
-89.6139
-49.1788
417.608
-25.4557
441.429
-6.44954
-26.7438
-5.52723
-19.0742
-1.91148
-0.703725
-129.305
123.729
-128.538
345.468
425.294
338.708
423.908
-120.69
-171.37
432.296
434.381
431.844
434.382
-92.5974
-182.771
-128.208
434.16
401.018
433.832
359.273
-51.1424
-103.952
-63.6829
427.282
404.838
-47.1768
-7.92761
-31.647
-8.32244
0.35091
-34.9629
-1.69329
-167.603
-58.1117
-131.471
431.593
434.487
430.124
-144.019
-155.798
-161.956
433.961
385.044
-133.881
-67.0709
-124.406
-76.7844
415.983
-47.6018
-123.997
-61.1375
-8.44391
-39.9366
-7.92708
-37.4318
-2.5332
-34.1007
-2.02045
-85.818
-53.2179
-80.6664
-113.623
-81.244
-89.3973
-163.955
-124.022
-157.938
-121.137
-136.891
-92.1223
-120.968
38.33
50.3595
38.5915
105.555
22.6176
72.8151
28.5926
-67.3079
20.9176
-66.8047
-15.557
-78.3632
-153.955
-61.7774
-81.2721
-96.7483
-174.863
-75.1986
-75.9229
-53.8457
-126.098
-98.1301
-179.101
-81.0266
-39.9568
2.63679
-18.3238
-15.4107
-51.7164
-3.51634
-33.1461
-64.4651
-30.4388
-39.0686
-89.6959
-123.012
-50.9237
-65.0585
2.04658
4.90898
3.37261
1.65343
1.99706
-1.75739
1.08646
-3.05132
0.897916
-3.73808
-7.13765
-7.46527
-8.41992
-5.50653
-6.40859
-5.71215
-8.00623
-6.25534
-5.68338
-4.26405
-1.66864
-4.06103
-1.76298
-3.37042
-0.67381
0.417812
1.63358
1.04974
-4.31626
-5.28685
-5.90748
-4.91232
-3.87423
-3.35137
-0.332796
-15.743
-10.1494
-7.8553
-5.90647
-10.3099
-12.6535
-10.6689
-17.52
-12.7104
-8.46749
-17.3343
-9.87719
-7.70348
-4.06916
-5.74692
-3.78626
-4.673
-0.0841758
-2.95383
-0.495964
-9.21053
-7.12863
-8.12531
-6.5396
-7.20938
-4.77454
-6.87559
-12.7976
-10.8122
-13.4406
-11.4733
-16.2771
-11.6207
-16.0148
-9.91775
-14.7088
-13.0891
-16.0381
-12.5478
-17.1039
-14.624
-4.76219
-9.43431
-6.64348
-6.5574
-4.93788
-8.91946
-6.14209
-0.502938
-3.80825
-1.47512
-3.08809
-1.23687
-3.80021
-1.54956
-162.63
-103.151
-156.785
-81.1447
-208.88
438.356
-126.777
-176.449
-152.151
-208.344
-142.307
-119.108
-157.044
-130.552
438.022
438.524
431.875
436.081
-152.261
-138.273
-118.778
438.375
-113.63
434.338
375.186
-35.8432
-102.373
-35.0515
-90.8529
-21.5729
423.782
319.236
-3.09111
-19.4371
-0.651429
-11.1589
-0.735147
316.767
433.228
436.365
432.474
435.032
429.774
433.167
-117.559
435.424
459.948
433.075
405.492
432.308
414.934
-28.6159
424.46
406.752
316.552
418.58
347.588
-0.0449577
-13.6824
0.134279
318.506
18.7864
276.888
8.00621
435.61
431.372
433.245
427.058
431.882
426.156
430.497
401.758
434.708
342.784
431.99
412.368
431.153
441.398
449.701
351.619
438.811
312.664
443.472
247.661
0.0297952
329.579
0.766317
245.366
2.45202
303.851
0.364984
432.548
430.953
434.057
425.372
429.815
424.895
429.523
403.324
433.234
391.042
431.132
433.598
429.267
474.218
323.02
410.959
324.779
424.416
298.04
371.033
292.804
1.19295
0.644693
297.951
295.52
6.64108
434.069
430.038
433.98
425.798
430.215
427.995
431.423
373.228
433.347
-131.775
429.774
414.778
429.265
376.698
-119.604
-49.6341
352.529
224.327
410.931
277.972
0.318401
-35.4262
-0.958918
237.83
5.78595
314.989
-8.5889
433.789
-86.7984
425.821
431.857
431.367
433.083
-131.929
-103.535
431.315
549.429
432.28
410.644
-51.6626
-94.8932
-76.8298
403.594
323.392
395.874
-55.7854
-2.06682
-52.2649
-6.02889
304.809
-14.7627
-38.7171
0.279597
-76.0107
-80.956
428.961
433.299
-68.8191
-101.403
-115.819
-163.722
432.841
410.198
-113.628
-150.981
-94.3795
-167.506
-105.521
-62.2976
-138.161
-103.729
2.09365
5.58752
4.6248
-4.69465
0.901505
-10.3154
-6.37454
-11.4724
-7.89686
-3.87754
-4.82415
-3.15504
-0.63754
-2.9046
-0.660379
-5.94782
-4.89802
-4.22482
-2.7673
-9.96732
-19.8665
-5.12923
-16.2778
-19.0665
-7.68689
-16.8493
-12.398
-2.71165
-3.55474
-8.22806
-4.30355
-2.64083
-0.574182
-3.40001
-0.619254
-3.89125
-1.93043
-5.25775
-1.58938
-1.6533
1.11398
1.25393
-19.8521
-10.2208
-21.64
-4.86934
-16.7802
-5.52133
-25.0505
-9.69104
-21.5192
-15.5192
-17.5334
-13.8059
-26.4295
-11.1377
-4.45661
-11.5215
-5.19073
-10.5085
-4.8443
-4.76093
-6.90412
-22.6642
-13.4947
-29.5228
-7.11707
-27.2607
-14.8923
-18.0551
-32.6758
-27.2645
-28.2855
-12.1045
-37.0298
-33.6104
-28.0349
-52.245
-15.3945
-59.2014
-37.7982
-116.873
-37.8458
-62.1413
-53.1935
-54.9278
-44.0172
-122.412
-72.3548
-129.431
-120.682
-184.439
-68.4674
-153.147
-134.584
-186.403
-88.2627
-205.441
-140.445
-160.38
-122.965
-193.619
-121.106
-198.412
438.122
438.835
-189.901
433.395
437.589
-129.145
438.523
-110.764
-191.362
-104.372
436.98
458.923
-28.4464
-88.0673
-21.538
-74.1273
-21.6741
406.385
296.523
-3.4553
-11.2356
-0.697894
-14.0609
-0.960195
309.059
-3.00425
435.506
417.184
436.321
371.07
435.974
385.341
-18.9434
433.277
316.59
352.763
275.578
380.093
154.407
-0.112877
306.313
306.26
-9.40753
284.635
-0.0201947
422.493
432.563
360.886
435.996
410.92
433.349
453.527
311.151
417.211
300.981
420.036
271.335
439.91
253.498
2.14103
335.325
7.55071
289.216
-1.51334
236.638
-69.077
413.818
431.237
439.394
431.99
557.815
430.833
621.038
320.123
442.338
222.216
424.166
252.668
432.191
278.526
-0.430646
304.07
4.09031
141.294
272.381
-46.2886
429.592
429.361
416.105
431.842
467.029
431.345
427.136
273.944
364.953
305.602
427.783
3.51766
436.517
197.639
268.089
1.79765
195.186
-71.7603
375.97
430.099
441.272
430.971
444.089
430.811
423.792
274.785
423.483
298.88
450.719
231.628
386.221
230.073
5.45583
337.154
-3.69088
164.416
267.149
-1.63952
410.477
432.247
408.373
430.391
210.672
428.684
409.019
293.055
417.328
400.248
146.172
430.008
287.374
-27.9011
1.50899
274.577
0.343919
258.219
-3.3105
433.356
-63.7397
-105.794
429.7
429.377
428.47
432.995
419.822
-119.546
-142.391
429.131
409.639
431.991
-57.4044
-130.738
-84.9395
430.449
287.458
-134.238
-65.879
0.808167
-58.9613
-4.55332
318.166
-4.99724
-50.5129
-6.55559
-108.202
-69.9162
-123.786
427.599
-63.3397
-141.961
-152.279
-147.788
-153.555
-144.441
-154.315
-156.199
-95.9734
-131.424
-92.4613
-136.978
-78.3688
-145.452
-100.862
-58.4691
-3.22575
-29.7835
-45.1377
-132.434
9.74617
-59.28
-97.3012
-44.2935
-53.8099
-137.049
-142.794
-58.719
-65.9122
-18.2624
2.06806
-15.541
17.4306
-51.184
12.8659
-32.2922
-18.7053
-18.9909
-51.5512
-49.8991
-28.7393
-14.5462
4.22588
-12.1552
7.00641
-28.9786
7.18824
-13.6449
-16.3638
-12.9659
-9.76148
-26.8274
-23.6303
-16.4983
-12.8693
7.07608
8.10457
8.44496
0.46964
4.49494
-13.3789
5.52058
-10.3317
3.04063
-6.81874
-8.8207
-12.8439
-11.4278
-8.72182
-7.12165
-2.61676
-8.45292
-2.99048
-4.41758
-2.75077
-1.36069
-2.76183
-1.30831
-2.4011
-0.576792
4.20879
2.87654
-6.31956
-7.43761
-6.21619
-4.61953
-2.77973
-2.48087
-0.238195
-4.60966
-4.64017
-6.4698
-5.60317
-5.5905
-7.92294
-11.7166
-6.47003
-9.21855
-7.22475
-10.0877
-13.38
-11.5376
-9.70591
-7.86521
-12.3463
-11.2272
-7.19991
-4.89901
-7.04773
-4.46986
-8.14462
-5.8511
-3.26475
-1.39896
-3.92301
-0.0427903
-3.71897
-1.54413
-15.9368
-5.15581
-20.4536
-6.51572
-11.1998
-6.9321
-13.8089
-14.4273
-21.4222
-15.158
-14.5764
-13.9007
-18.5986
-16.7126
-23.9246
-5.67406
-18.175
-9.83357
-27.4022
-16.0972
-24.5987
-23.261
-34.1818
-29.9581
-37.8861
-135.663
-13.3439
-48.5609
-58.62
-147.328
-135.422
-66.8132
-52.3445
-45.7025
-149.702
-101.836
-32.1028
231.96
-135.647
109.945
-64.1884
310.626
432.594
-159.823
-136.803
-186.959
-91.491
-168.057
436.451
439.097
-92.294
-187.923
-119.63
-167.962
-108.659
438.718
-34.137
-83.3759
-23.4544
-86.1151
-44.7196
-33.4883
-4.79862
-14.6016
-4.63327
-17.2323
-5.08714
-19.2084
-2.31258
-187.503
435.094
436.71
436.681
438.727
433.273
436.002
-106.118
436.49
402.596
438.012
421.414
435.199
420.952
-18.4045
405.699
293.62
430.755
-25.2829
427.419
219.599
-1.90158
296.837
6.39702
-18.0707
-1.45543
274.708
1.75025
557.649
434.64
426.406
435.185
357.858
434.647
361.142
269.778
413.96
251.458
416.189
281.02
444.156
49.0883
3.65312
315.694
312.815
4.66469
228.109
-110.065
383.969
436.439
417.213
434.847
438.422
429.154
491.82
198.489
440.1
258.108
437.293
145.938
408.233
166.639
0.337743
368.777
-36.9901
210.508
332.882
582.369
429.94
594.5
426.501
440.579
420.142
374.109
218.888
432.045
211.458
351.303
164.151
333.43
271.149
-37.644
235.621
-44.8254
231.594
271.467
502.478
416.298
412.387
415.865
410.601
415.069
411.625
413.933
428.178
421.273
428.666
418.298
420.289
418.744
421.48
472.296
430.522
491.19
419.392
374.526
420.662
354.18
175.806
452.914
72.6096
335.81
269.502
279.132
250.313
169.415
267.202
462.209
245.119
718.357
454.31
432.343
209.807
424.333
394.261
428.389
426.234
208.24
395.031
196.933
270.913
187.545
440.4
233.345
380.17
-2.55187
217.499
680.084
256.299
388.116
427.889
409.995
429.484
548.013
428.267
402.27
182.282
427.218
328.168
439.036
228.475
426.39
208.319
-27.2274
286.11
-0.818229
308.839
235.938
-3.00271
429.317
431.141
432.878
424.463
428.253
430.236
431.789
439.015
431.916
427.846
443.918
431.023
358.533
305.162
-63.713
424.28
235.331
343.72
300.035
-9.24359
-48.4693
-3.88861
262.123
-27.4575
301.868
0.872825
417.525
171.494
-4.67594
330.925
418.738
187.913
-73.8252
433.055
-87.139
-143.864
432.081
433.594
-80.1527
-107.431
-145.276
-143.53
-161.913
432.362
325.652
-115.483
-153.331
-71.9327
-159.89
-90.87
389.233
304.691
-157.849
-78.4492
-2.9999
-45.3561
-11.2214
-0.0311938
-43.4195
-10.0577
-141.445
28.9526
-53.9946
-100.713
7.18379
-71.5247
-149.416
-77.0462
-119.913
-161.564
-90.4196
-109.049
11.1635
-27.6045
10.7428
-44.95
4.06985
-15.7349
-27.6359
-26.4686
-57.0663
-70.5532
-27.1705
-32.2536
-18.3192
3.98982
-11.2875
4.16548
-8.35804
3.02134
-5.90172
-20.9962
-13.7164
-13.1608
-17.5398
-20.0208
-12.5579
-14.5414
6.2911
0.584318
4.1052
7.30931
5.75448
2.71279
3.15251
-6.14507
2.01548
-5.74738
1.96473
-4.02759
1.95013
-2.84033
-10.3312
-7.54566
-6.94907
-8.66125
-9.67753
-4.78293
-6.29299
-5.2156
-5.16535
-3.54022
-8.49216
-6.15089
-5.68993
-4.14357
-1.874
-2.85109
-0.583001
-4.34776
-1.93488
-3.23198
-0.763281
3.59251
-0.144471
2.79044
-5.56641
2.19974
-3.01624
-5.86894
-4.06034
-5.52259
-3.17911
-5.20307
-3.891
-0.415115
-3.29919
-0.466451
-8.31044
-9.09118
-7.56954
-6.87427
-4.49182
-3.69661
-0.0219314
-6.48901
-5.00678
-5.42931
-13.1537
-6.44172
-4.71194
-5.27406
-8.95208
-6.55644
-9.28889
-6.37844
-8.41577
-6.34046
-8.91429
-7.93165
-12.2075
-11.1795
-9.35181
-8.37326
-12.0263
-11.1372
-4.56844
-8.83914
-6.51696
-7.11289
-4.91412
-9.02168
-6.74496
-0.115499
-3.91579
-1.5665
-3.6742
-0.557644
-4.00316
-1.61277
-171.568
437.227
438.973
-61.6532
-149.411
438.242
438.651
-107.998
438.561
-162.218
-123.649
438.215
430.258
-45.7112
-32.8137
-95.6271
-45.5806