/*--------------------------------*- C++ -*----------------------------------*\
| =========                 |                                                 |
| \\      /  F ield         | OpenFOAM: The Open Source CFD Toolbox           |
|  \\    /   O peration     | Version:  4.0                                   |
|   \\  /    A nd           | Web:      www.OpenFOAM.org                      |
|    \\/     M anipulation  |                                                 |
\*---------------------------------------------------------------------------*/
FoamFile
{
    version     2.0;
    format      ascii;
    class       volScalarField;
    location    "83";
    object      p;
}
// * * * * * * * * * * * * * * * * * * * * * * * * * * * * * * * * * * * * * //

dimensions      [0 2 -2 0 0 0 0];

internalField   nonuniform List<scalar> 
146404
(
-7.86838
-3.72627
-10.5
-6.46158
-12.6807
-7.92896
-3.93444
-2.39586
-6.48042
-21.6073
-2.33042
-6.66161
-3.37327
-10.5302
-6.39894
-3.41115
-6.94255
-6.05821
-4.00692
-9.88422
-7.94215
-11.4649
-8.54386
-4.25007
-5.55861
-7.71441
-11.8389
-10.4293
-4.74177
-1.34265
-7.98097
-18.9288
-13.9213
-4.41396
-0.422577
-6.9648
-16.0428
-11.3179
-4.43405
5.08813
-1.11239
-21.1263
-4.19459
4.26704
-5.14846
-15.4102
-11.3207
-4.76408
2.56204
-3.38428
-10.0672
-9.32483
-4.78025
1.45809
-1.95781
-8.11917
-7.71776
-3.90327
-0.412146
-1.12989
-6.91449
-5.56794
-3.09567
-3.75794
-8.57644
-3.18556
-2.5246
-8.40031
-17.6427
-12.1362
-5.68935
2.7019
-8.62509
-24.704
-19.503
-7.58038
5.81989
-11.9322
-32.9395
-26.0794
-8.38307
8.3581
-7.51699
-26.3165
-20.4452
-9.75932
15.7995
-6.49114
-36.4081
-9.66123
13.3596
-7.48844
-27.0368
-25.4676
-10.8852
16.675
-5.35024
-25.9313
-22.6509
-11.0171
10.8443
-0.873984
-15.721
-15.5527
-7.37678
8.95002
-2.59799
-12.5081
-7.58157
-4.30633
10.4911
-7.00327
-8.52759
-1.37556
7.83402
-3.26169
-1.96011
-1.19374
-9.09684
-11.9745
-15.9365
-10.4215
-4.02858
-2.17052
-11.2037
-23.746
-12.6397
-5.3464
6.99872
-1.57901
-29.3816
-12.5779
-9.74382
14.1423
-11.9943
-34.91
-31.7955
-11.9178
24.5754
-30.7395
-54.957
-55.7493
-11.3521
38.3185
-33.222
-73.8556
-49.6719
-11.6378
50.6183
3.8525
-90.3023
-11.4838
40.0487
-23.0061
-77.0431
-57.9277
-16.1942
30.9611
-17.3861
-56.0497
-55.7535
-19.6359
27.4957
-2.58152
-32.2081
-35.99
-15.1262
23.218
4.65749
-26.1432
-11.041
-8.71657
16.1766
8.16121
-9.35911
-8.39048
-4.83788
10.5464
7.18675
-1.58877
-3.76623
-2.66379
7.98971
2.03809
-1.05965
-1.79302
-10.9833
-12.0316
-14.4318
-10.5729
-4.50778
-4.70331
-13.4291
-25.7187
-15.4255
-5.12543
1.49868
-15.1132
-33.4824
-24.4772
-8.89226
24.3312
-13.0637
-57.6067
-27.9036
-12.0285
57.8543
-22.7722
-92.3932
-122.118
-19.9924
101.572
-83.6491
-163.808
-140.018
-25.7908
119.176
-93.8166
-164.538
-143.937
-29.9772
150.994
-70.9819
-150.983
-20.6816
121.782
-96.5318
-160.162
-160.963
-41.1736
97.3403
-78.4762
-131.563
-173.194
-55.3401
65.8473
-2.62473
-88.841
-136.931
-41.9573
43.6817
21.1821
-41.815
-56.0648
-22.2074
25.5087
9.38536
-16.8165
-20.6969
-10.1475
17.2607
7.77547
-5.32836
-8.58269
-4.41291
10.7106
8.9487
0.590675
-3.7424
-2.71688
-13.6946
-11.9902
-14.8076
-9.13525
-4.16536
-5.87187
-14.2615
-19.364
-14.7908
-5.18283
-1.12706
-15.3141
-38.9936
-24.2153
-7.58603
12.5014
-29.2307
-89.9424
-45.8078
-11.1305
58.5913
-109.654
-178.495
-124.413
-15.6335
141.312
-97.0678
-143.661
-180.063
-22.0571
310.606
435.539
-124.694
-18.1001
382.523
434.003
435.154
410.065
385.934
430.963
434.574
428.347
305.224
372.391
430.43
433.839
421.737
305.59
429.299
-144.812
-43.3416
182.582
-130.385
-68.7242
79.6774
-15.7055
-77.8106
-134.761
-43.0337
36.7767
6.5866
-40.2124
-53.9489
-18.729
24.0153
14.3793
-12.1511
-20.003
-7.60322
16.6594
8.33094
-3.0977
-6.19287
-4.2843
9.17265
8.35848
-0.120053
-1.46707
-1.7035
-5.2172
-11.0973
-21.5382
-7.47851
-3.15678
-2.18176
-14.0605
-25.9276
-15.0088
-5.18629
6.02609
-18.0817
-44.5898
-29.2262
-9.10635
37.4312
-75.7857
-129.397
-65.6545
-13.8135
126.149
-136.689
-221.484
-129.734
-16.3838
373.818
436.96
437.932
-13.4583
412.635
430.351
434.018
405.325
303.716
413.962
426.896
431.503
437.263
331.173
412.743
425.469
431.658
424.391
282.848
409.134
425.263
430.04
415.862
330.999
391.039
425.738
430.937
398.592
293.77
349.372
431.864
432.471
423.331
-56.5239
182.116
-32.7826
-76.7724
-145.393
-72.059
63.7106
-1.08267
-72.872
-117.99
-31.3684
35.4636
15.6258
-22.6674
-28.0784
-11.9493
21.7369
12.4286
-10.271
-10.2204
-4.65379
15.0744
9.98648
-7.25754
-0.436847
-1.82254
-3.97314
-8.98374
-18.1425
-10.418
-4.74214
3.68161
-3.93057
-27.6712
-13.6361
-7.21994
24.776
-37.2384
-11.8348
83.3485
-83.0939
-169.003
-112.065
-14.8075
303.496
-210.264
-117.125
-6.25572
413.55
431.208
435.936
391.282
274.41
416.867
427.547
435.051
378.478
265.461
414.984
423.876
433.804
430.845
327.841
413.16
421.189
429.81
431.193
210.338
412.801
422.396
431.733
453.902
314.643
408.903
423.489
431.314
350.863
295.556
387.758
426.44
427.476
428.856
311.239
307.876
429.246
432.21
-124.026
-62.6026
104.524
-2.02611
-76.3829
-130.715
-39.9409
47.793
89.2948
-152.834
-16.5247
24.8328
16.0969
-17.9897
-12.6973
-5.97357
14.3729
7.13653
-6.26982
-4.91762
-3.56209
8.39737
-2.16491
-2.02207
-1.67115
-7.61009
-10.8758
-8.54227
-4.69779
-1.86491
-8.35004
-19.6885
-13.2847
-4.62394
5.38495
-12.6753
-37.6504
-25.4124
-8.22394
29.357
-30.4017
-70.957
-50.3271
-11.8259
97.9997
-66.1888
-184.844
-115.311
-27.6079
380.618
436.723
437.435
437.942
-5.13115
416.775
429.944
434.65
387.494
260.541
416.685
425.57
433.383
457.847
170.047
414.273
420.615
424.825
289.941
230.416
407.926
416.695
414.152
336.459
257.788
410.311
418.037
419.971
288.846
225.148
411.569
421.84
430.217
438.962
175.607
399.526
423.063
427.763
411.684
255.46
350.848
430.711
433.021
384.754
310.364
138.229
-34.2391
-84.2327
-150.162
-64.535
38.0665
10.685
-45.7527
-50.6516
-17.9525
22.2322
7.15384
-12.3473
-17.7031
-8.18661
14.8313
8.7786
-3.2286
-8.63562
-4.76876
6.96761
8.10354
0.809898
-2.62813
-2.68275
-14.1207
-7.36051
-10.6148
-8.59707
-4.58449
-1.54139
-8.08989
-19.2773
-13.3989
-4.7523
6.02679
-13.0368
-37.6691
-26.1356
-8.64012
30.4267
-33.4472
-73.8194
-53.9393
-11.7829
115.899
-79.8891
-171.851
-121.073
-28.63
385.358
437.477
437.105
420.98
417.336
430.605
435.553
441.406
335.008
417.397
425.778
441.865
449.426
203.188
412.164
420.427
418.596
329.954
277.164
408.078
415.891
404.658
338.014
266.619
405.921
417.786
412.859
333.147
261.976
412.513
422.189
428.214
454.391
209.012
402.241
423.594
428.654
441.596
260.767
355.193
430.037
431.586
415.018
314.16
146.681
-41.9098
-102.263
-150.768
-55.4973
33.662
1.89276
-42.962
-48.2323
-17.7361
22.0666
7.33109
-14.6043
-18.8291
-8.61584
14.2783
8.54005
-3.65104
-9.45445
-4.9761
6.5046
7.67539
0.361913
-3.33498
-3.14751
-7.20242
-10.3847
-7.93711
-4.61934
-3.28931
-7.08077
-15.4645
-11.6795
-4.4805
5.75736
-6.9414
-26.8228
-22.1726
-8.65723
33.2889
-14.8008
-64.657
-59.8981
-12.2721
127.083
-48.9422
-152.933
-153.88
-35.7865
375.075
436.629
437.552
413.549
-16.9591
415.354
431.367
435.334
426.855
278.263
418.464
428.031
438.208
438.128
205.927
416.421
422.822
427.117
320.007
231.199
413.26
419.676
418.355
329.575
269.234
414.439
420.64
424.144
327.523
259.037
411.788
424.76
433.153
440.748
141.498
398.487
426.519
429.868
351.333
263.511
337.639
433.702
433.665
421.983
316.675
111.513
-50.7836
-102.662
-151.427
-27.7213
40.9303
11.2761
-47.3499
-65.4614
-14.3223
21.4674
10.4771
-13.5302
-18.8048
-5.99286
11.4903
6.76954
-4.77382
-7.56436
-4.63407
5.07198
6.88779
-0.0230337
-3.43135
-2.93647
-1.25406
-7.24198
-17.0197
-8.16671
-3.79314
7.16314
-4.88158
-26.8865
-7.69573
-7.20236
26.0557
-18.3071
-11.6414
74.2228
-48.3073
-139.144
-160.598
-23.9459
287.393
-141.536
-154.02
-25.6316
396.921
433.007
436.01
437.209
291.737
415.317
429.676
435.278
433.181
227.716
417.565
428.072
432.966
451.91
322.417
417.346
431.698
439.093
441.002
229.053
413.684
426.528
433.272
429.675
260.437
407.255
426.549
430.93
373.527
258.95
383.846
431.141
430.667
372.597
299.236
289.671
431.865
433.984
-169.512
-27.8476
65.0467
-47.1528
-117.828
-226.761
-15.7677
27.0323
-4.04356
-77.5565
-10.0769
14.7185
18.1779
-22.1677
-17.8249
-5.35027
8.61799
9.83081
-9.20967
-8.59934
-3.90507
5.91639
-3.7257
-4.15303
-2.67366
-4.49938
-9.13091
-18.8859
-8.21119
-3.55867
0.141045
-9.80857
-19.5972
-14.0638
-5.99674
8.80623
-12.3881
-35.7505
-31.528
-9.71563
35.4916
-35.8454
-88.3559
-75.0896
-16.6946
128.487
-69.8049
-150.148
-156.405
-33.3208
332.667
438.414
439.135
-33.7946
392.407
433.397
435.259
429.427
263.588
404.674
429.302
433.621
446.339
252.208
406.636
428.882
437.762
358.246
166.874
401.507
428.564
432.34
440.839
262.925
383.504
432.346
431.096
402.815
288.939
336.421
433.996
434.603
340.023
-6.60281
91.6856
-106.872
-190.611
-162.898
-17.937
10.7273
-18.0113
-48.2976
-40.5395
-13.2318
4.28641
-8.02135
-32.8862
-27.8429
-7.24003
3.13822
-9.33149
-19.4937
-12.4512
-5.32873
1.43431
-6.80749
-18.5355
-6.33921
-2.923
-12.5131
-8.3933
-11.879
-8.18723
-4.23465
-4.56565
-8.79345
-13.6431
-11.1278
-5.15951
1.62603
-8.15918
-23.6464
-17.844
-6.50329
16.5735
-11.3118
-39.4531
-41.8167
-12.7672
50.5787
-35.6727
-110.682
-122.688
-19.1931
119.789
-64.6496
-106.757
-178.789
-47.4872
281.277
434.845
-119.763
-151.762
-30.0027
351.997
434.452
437.086
392.602
360.559
434.924
437.779
401.507
317.432
349.618
434.432
436.055
421.82
279.984
435.01
-156.393
-19.951
94.1367
-191.108
-14.8632
33.2714
-36.7871
-90.7902
-78.1119
-12.5618
3.43741
-9.52182
-29.0928
-21.9779
-7.09719
-1.69684
-9.3071
-17.9777
-12.8794
-4.90687
-3.24287
-7.68794
-13.6964
-10.6677
-4.74834
-6.47326
-6.90226
-11.4532
-7.82588
-3.83908
-8.57961
-7.95202
-11.0044
-8.77639
-3.94624
-3.11978
-7.64439
-15.7169
-11.3373
-4.69289
4.52455
-7.78926
-24.5541
-20.9929
-7.14504
21.6119
-1.45076
-47.681
-32.4862
-10.6436
37.0011
-22.6872
-83.7695
-91.7438
-14.7515
52.8182
-60.0212
-140.75
-119.37
-15.2734
72.5564
-116.602
-152.632
-117.516
-23.1128
81.2307
-122.919
-170.553
-20.2096
71.1914
-113.723
-164.672
-118.106
-9.99085
47.5159
-60.7996
-138.573
-107.852
-13.3063
29.218
-15.7512
-85.7059
-93.5639
-10.4016
13.1253
-9.79397
-55.2404
-28.7146
-7.19804
1.38568
-8.6079
-23.9598
-18.7871
-5.28537
-3.62241
-8.53094
-15.3466
-12.1644
-5.17935
-6.83205
-7.58286
-11.6806
-9.84539
-4.74818
-6.08374
-8.35016
-13.5036
-9.02656
-4.11272
0.350577
-6.52421
-20.6464
-11.8218
-4.99595
4.09769
-6.84306
-28.0064
-12.1539
-6.24788
3.90429
-9.7718
-26.3786
-23.1823
-9.06816
5.86038
-14.8233
-37.2708
-28.6409
-9.97757
20.052
-18.9341
-48.9946
-43.8946
-10.6678
25.7819
-24.2431
-52.8353
-10.3393
6.67182
-21.3531
-51.7961
-26.7578
-9.15627
3.05177
-11.5114
-29.4564
-23.7995
-9.14972
4.94008
-9.66755
-28.7431
-26.369
-6.46804
1.96402
-4.79396
-29.8334
-17.233
-4.70424
-2.36172
-7.13261
-21.4211
-11.2143
-4.16669
-6.87426
-8.28331
-13.326
-9.50438
-4.6936
-7.66984
-10.4407
-8.13594
-4.61844
-4.01662
-2.3864
-3.31606
-4.22273
-8.43794
-15.0633
-10.2551
-4.96537
-1.62561
-7.38305
-16.7829
-14.5858
-6.31262
-1.84974
-8.48041
-20.2183
-14.426
-4.9984
2.01431
-8.54073
-23.6577
-19.0076
-5.10756
5.74116
-10.4537
-20.686
-4.78137
-1.75512
-13.0083
-25.2809
-12.9037
-4.83896
-0.840907
-9.35222
-17.5602
-12.9189
-4.94045
-4.19571
-9.72286
-17.131
-13.4408
-5.70403
-5.76981
-9.68101
-16.2379
-10.5231
-4.61851
-4.68949
-1.77502
-23.2492
-12.6512
-3.46975
-14.6322
-6.75039
-3.75383
-11.7259
-7.8985
-11.4901
-7.83064
-4.1314
-8.03878
-7.90156
-11.1136
-9.608
-4.85175
-6.2036
-7.60255
-13.6098
-10.8744
-4.8752
-4.48026
-8.42725
-15.8353
-10.6651
-4.77223
-1.24115
-10.4012
-11.8549
-4.68915
-5.22624
-11.4375
-16.4415
-10.4911
-4.70461
-8.11587
-10.3112
-13.3781
-10.6255
-4.71168
-9.40967
-9.55679
-12.7325
-10.4507
-5.10143
-11.4998
-9.14731
-12.5246
-8.85075
-4.4677
-13.0661
-7.62614
-12.5219
-8.8281
-4.38311
-10.3494
-10.4602
-6.06727
-3.32013
-13.5136
-9.7285
-14.835
-9.08787
-4.34849
-8.71872
-4.74583
-10.8893
-11.494
-9.17367
-8.11937
-4.88154
-4.0157
-0.251163
-7.50791
0.138935
-11.5744
-11.0549
-19.5748
-12.0241
-9.2968
-20.0711
-10.1564
-7.99098
-4.74316
-10.361
-3.14926
-3.94762
-0.263027
-2.82974
-0.337241
-7.08887
10.5337
-1.68925
-6.24262
-2.89161
-10.3167
-10.8009
-7.60751
-22.0563
-2.82971
-6.08742
-3.85239
-2.55287
-0.316937
-3.32265
-0.37043
-2.41525
-3.39312
-9.5846
-10.1574
-7.54133
-6.11361
-3.99019
-3.41518
-0.37119
-7.56969
-7.83861
-10.9806
-11.3777
-9.2192
-8.13513
-4.98632
-4.19256
-0.295729
-13.7636
-7.63602
-8.97283
-7.28745
-7.84318
-10.7688
-7.67694
-9.64912
-11.1369
-9.19594
-10.6929
-9.85982
-8.13304
-5.08738
-8.85107
-5.92716
-4.29668
-0.291838
-4.50497
-0.762148
-8.1437
-7.02189
-5.94487
-6.36196
-7.42249
-9.58333
-7.12804
-10.2632
-10.6054
-10.1717
-11.8433
-11.0428
-9.22598
-6.27523
-10.246
-6.74012
-4.7212
-0.82668
-5.03375
-0.963072
-10.9722
-6.20096
-5.58112
-5.80297
-4.30913
-4.91677
-6.58434
-10.7063
-6.94339
-9.55372
-6.86769
-10.8304
-9.7424
-11.6325
-9.93941
-12.6031
-11.8181
-14.2663
-13.2685
-5.6817
-7.89175
-5.24451
-9.9419
-7.34987
-10.6393
-7.62328
-3.94021
-0.646536
-4.31258
-1.69111
-4.42282
-1.74005
-5.90478
-3.45075
0.385217
-2.86487
-3.70217
0.161169
1.22591
-11.8335
-7.8135
-19.9268
-7.25302
-11.9333
-12.621
-23.2397
-10.2588
-20.3231
-11.4586
-14.02
-12.3826
-24.2288
-14.3119
-5.1797
-5.76526
-3.92549
-9.00134
-7.15219
-6.3821
-4.18643
-0.742817
-3.05841
-0.649675
-4.60053
-1.96013
-3.39283
-1.54913
5.59038
-6.29895
-1.56533
2.5457
11.2158
1.0723
0.301714
-3.15636
-10.0137
-1.99742
-2.82978
-11.3468
-10.8084
-8.27151
-16.4075
-12.4427
-11.4335
-2.9154
-5.96498
-4.24034
-20.4621
-5.2125
-8.88044
-5.80916
-0.519569
-3.2964
-0.652691
-3.91564
-1.56756
-4.35007
-1.9434
-2.51409
-2.47515
0.488032
-0.950093
-0.0848217
-1.33497
-9.50734
-2.77019
-6.68044
-4.40888
-9.33557
-4.18821
-7.25352
-8.59612
-7.3212
-6.9197
-12.4665
-11.5908
-9.66068
-9.23133
-4.41482
-6.1777
-4.33643
-8.05599
-5.87356
-8.27273
-6.3268
-0.64334
-3.79977
-0.379252
-4.21069
-1.81843
-4.30877
-1.8752
0.152
-1.11399
-0.759083
-0.955085
-6.23663
-3.08477
-5.54012
-1.98187
-5.52241
-6.66605
-8.19333
-8.6585
-6.98605
-7.78387
-4.40273
-7.59566
-5.87555
-7.29708
-5.29641
-0.362841
-3.81597
-1.66158
-4.12207
-0.821945
-1.08356
-0.926499
-2.54982
-0.607295
-1.84264
-5.24506
-1.02072
-4.89466
-6.69198
-7.27907
-6.33977
-6.28427
-6.83972
-4.8998
-5.46584
-4.07238
-3.88602
-0.758446
-3.30646
-0.643234
-3.14539
-0.480143
-0.893788
-5.69573
-6.39162
-6.10699
-5.50878
-3.67947
-3.23286
-0.328682
-8.22715
11.9349
-5.42769
-3.75339
-3.0451
-0.545441
-12.0985
-7.51057
-6.44272
-2.15995
-5.9571
-5.78177
-7.78739
-11.4531
-8.7658
-8.72168
-13.7662
-12.0045
-10.0698
-13.9688
-15.4184
-13.3852
-7.99717
-5.20642
-2.95749
-4.64845
-8.56507
-5.78653
-3.9233
-0.60792
-3.47235
-0.644664
-3.79703
-1.53735
-7.38689
-6.88755
-6.62051
-5.42567
-5.52479
-4.15224
-5.25365
-10.7697
-7.992
-9.96381
-8.38376
-12.503
-8.08908
-11.9282
-10.2158
-11.7791
-11.6551
-14.5237
-13.6664
-14.5625
-14.1353
-5.73094
-9.29726
-7.30698
-10.1252
-7.38977
-11.5316
-8.47138
-0.73003
-4.13593
-1.69792
-4.79116
-2.06826
-5.13429
-2.11811
-13.336
-12.5422
-24.0752
-6.9916
-16.1675
-4.98259
-33.2805
-15.1011
-25.37
-15.4699
-20.462
-19.4879
-34.4078
-23.6564
-2.67068
-12.6628
-6.70619
-1.16828
-17.6573
-17.9476
-13.8919
-13.146
-26.6394
-20.4439
-20.0673
0.685023
-0.220291
-0.051269
5.58061
2.93296
4.54792
3.20525
0.189184
4.59491
3.42848
6.90781
6.68035
-5.71001
-2.19232
-8.08889
0.235525
-14.7704
-6.71772
-10.4954
-9.46814
-14.6182
-7.4317
-3.86099
-6.41636
-4.46111
-2.73577
-3.48876
-0.655341
-3.33713
-1.52505
-2.34927
-0.56638
7.34266
9.78092
1.4776
-16.5651
8.32612
-3.79652
-16.7357
-7.37886
-5.25447
-3.80627
-5.0379
-1.04175
-2.30128
-0.768749
-1.18193
-0.382457
-0.740988
-0.204329
-12.4653
-10.9024
-11.5454
-13.6674
-14.2039
-11.2244
-9.39414
-5.65005
-4.27715
-0.739436
-6.68454
-2.23706
-10.7843
-10.267
-6.6308
-7.5314
17.9444
-11.9136
-14.5098
-11.6888
-19.9588
-36.6655
-15.2876
-13.0801
-20.2541
-13.9106
-1.30237
-4.42176
-8.82331
-6.21484
-8.58335
-6.2698
-3.28912
-0.603939
-3.80777
-1.5503
-4.00797
-1.67379
-7.39925
-17.1177
-11.0826
-23.2217
-2.96683
-29.4096
-17.9711
-14.5198
-23.1752
-13.9505
-28.2348
-21.0566
-21.0118
-5.10135
-35.8411
-13.3042
-32.5758
-6.92807
-67.8427
-27.2954
-36.8583
-26.7521
-41.4565
-42.3642
-63.1964
-54.9836
-1.19917
-21.0183
1.08879
-0.667732
-40.1087
-30.0583
-24.2705
-25.5376
-62.3007
-46.6591
-47.9738
-11.3612
-0.0286864
-15.7586
2.9854
-19.9515
14.7698
-10.5468
-11.5995
-15.8508
-7.227
-22.2821
-18.5825
-12.5916
-11.5089
11.1092
3.45901
8.98416
12.9734
14.2178
10.5336
10.397
8.061
-2.46427
11.5381
-5.86529
7.10709
0.61955
-7.78781
-5.05174
-4.32326
-10.1795
-10.2052
-4.54974
-5.52484
-1.71349
-1.93342
-1.39887
-6.7561
-3.73266
-3.96405
-3.11807
-0.805848
-1.16123
-0.421492
-2.9646
-1.34371
-2.6395
-1.29445
8.75576
9.24017
8.90904
8.20643
-1.84378
7.50728
0.993612
7.76
2.88554
-3.23681
-1.62105
-3.55203
1.66353
-1.36415
-1.42686
-3.41083
-2.5257
-1.17234
-2.05217
-0.375274
-2.33242
-0.582124
-1.74757
-0.363712
-14.9564
-11.8077
-11.6235
-12.6508
-13.0161
-10.9196
-9.45426
-6.0996
-4.56938
-0.692719
-11.5229
-10.8783
-13.1433
-11.6058
-10.0639
-10.5313
-11.8408
-13.0643
-11.7838
-13.0495
-12.132
-14.1667
-14.0311
-12.5845
-13.3064
-11.4654
-15.2278
-13.8245
-9.66501
-7.20924
-9.87769
-6.40194
-10.7298
-7.7853
-4.20627
-1.69134
-4.63853
-0.775704
-4.38081
-1.72037
-23.8669
-5.26847
-33.7703
-13.184
-23.9543
-10.4302
-39.831
-17.6972
-30.4239
-27.7248
-27.4462
-24.8293
-41.9564
-33.5472
-30.3457
-10.0806
-27.6182
-7.25213
-49.5422
-6.99526
-52.4648
-22.1993
-30.5734
-32.0437
-49.631
-36.8645
-60.1393
-64.3315
-56.8391
-5.14427
-79.6846
-94.7671
-141.238
-72.2003
-147.305
-72.1269
-74.1575
-70.4023
-156.839
-139.444
-163.379
-167.821
-6.33938
-54.1287
-29.2694
-73.1063
-139.526
-78.294
-64.894
-68.7088
-160.154
-162.774
-173.107
-21.0739
3.06677
-23.1882
1.37144
-59.4138
61.7226
-37.3622
-26.9502
-25.5029
-73.1931
-99.9093
-81.1843
-24.6023
13.9508
-9.14336
30.9879
-41.1886
14.0686
-7.72032
-18.8137
-13.734
-13.8805
-40.2059
-56.0946
-14.2069
-20.8965
10.3862
3.34616
8.6603
13.4508
11.6746
10.6913
10.2952
3.18407
7.7016
3.65449
8.507
2.9922
8.43404
4.95628
-3.62883
1.27737
-1.50521
-2.63178
-5.42155
0.0437024
-2.58367
-3.33633
-1.41036
-2.25105
-6.53013
-5.00244
-4.25838
-3.90505
-1.32642
-1.87628
-0.550795
-3.87235
-1.78237
-2.90954
-1.40148
8.3526
9.28417
9.32194
3.26242
8.55684
3.87017
-1.16482
1.15693
-1.94837
-2.11679
-2.91529
-2.53511
-0.416514
-2.32741
-0.608963
-12.205
-14.217
-14.2682
-10.1535
-9.60827
-5.11958
-4.7269
-0.165489
-13.6299
-11.7072
-17.2672
-11.7251
-10.3433
-11.2041
-11.8113
-13.003
-11.9182
-14.0612
-12.3454
-13.8923
-13.3407
-11.4523
-14.1098
-10.2558
-14.6216
-13.1441
-9.89345
-6.39133
-9.41331
-5.2239
-10.0186
-7.10813
-4.70826
-0.769703
-4.55607
-0.218736
-4.05684
-1.55149
-55.3045
-10.6636
-70.0414
-44.1863
-96.4678
-82.2969
-126.595
-48.8206
-75.7908
-103.092
-114.806
-120.869
-130.648
-203.141
-81.8379
-92.366
-107.92
7.20314
-96.8055
-127.507
-111.324
-125.6
-156.06
-196.706
-128.73
-134.377
-125.939
-86.188
-146.134
-132.057
434.187
436.379
-177.524
-162.469
-162.16
-134.557
-138.662
435.686
-71.5104
-133.017
-62.4961
-124.915
-49.5777
-39.767
-5.36727
-27.3833
-7.71076
-25.6556
-5.15685
-24.3717
-1.05393
-95.2539
150.213
-127.219
335.716
429.791
349.107
425.741
-149.329
-98.4454
-142.142
435.329
436.288
432.564
435.32
-163.203
-157.725
-164.69
435.61
387.043
434.939
364.431
-61.4487
-146.976
-46.8383
417.877
-34.8384
442.026
-7.42093
-21.2656
-4.48293
-24.352
-0.123696
2.20073
-96.3996
129.434
-117.768
349.147
425.927
340.972
423.604
-105.909
-137.552
432.382
434.631
432.014
434.688
-161.05
-162.275
-183.819
434.373
401.093
434.212
359.103
-45.6839
-158.657
-72.144
427.358
405.008
-39.903
-4.09508
-32.266
-6.88203
3.34677
-24.6584
0.385197
-135.653
-70.4153
-114.452
432.335
434.86
431.041
-182.201
-137.753
-187.185
434.357
384.797
-155.524
-87.1654
-162.205
-101.405
416.071
-46.025
-151.864
-75.3946
-8.17858
-48.6673
-10.6083
-27.6311
-0.44131
-39.7875
-2.38479
-88.071
-53.7191
-91.54
-114.055
-80.1056
-97.7486
-174.354
-113.389
-150.248
-121.564
-149.244
-102.836
-128.26
41.4661
56.8494
47.2487
111.898
37.1487
81.2325
42.4247
-77.4297
35.4051
-54.4937
5.85997
-68.0894
-123.483
-52.0134
-88.7547
-90.2356
-122.382
-134.885
-94.1965
-92.3335
-114.346
-144.048
-129.369
-141.276
-26.993
12.541
-6.57421
1.76963
-36.1685
7.47609
-15.6934
-62.1956
-21.9925
-31.2635
-74.3479
-111.426
-40.6856
-57.2118
9.79433
13.2983
11.4236
9.78128
9.86003
5.45747
8.80907
4.2921
8.59703
3.11429
-1.9202
-0.844154
-3.36062
0.809712
-1.71813
-3.16892
-4.75031
-3.92486
-1.72245
-2.00158
-1.34721
-3.12694
-1.47497
-1.79377
-0.568335
8.5056
9.42017
8.7468
2.37976
1.13437
-1.26267
-0.934713
-1.54817
-1.66964
-0.284453
-17.8584
-12.3177
-9.84171
-8.09561
-12.4916
-14.6465
-13.2197
-19.7067
-14.6292
-9.98594
-19.3036
-11.2918
-9.11347
-4.90149
-7.11119
-4.73038
-5.18784
-0.178429
-3.62757
-0.59814
-11.3738
-9.27986
-10.2432
-8.55541
-9.3505
-6.86461
-9.06518
-14.8627
-13.0684
-15.7147
-13.8394
-18.5793
-14.0157
-18.4028
-11.4994
-16.7213
-14.722
-17.9716
-14.254
-19.2318
-16.4014
-5.73273
-11.0837
-7.90759
-7.93211
-6.04314
-10.625
-7.44804
-0.606955
-4.51497
-1.78288
-3.62166
-1.47961
-4.54303
-1.86125
-147.021
-112.324
-128.636
-119.675
-210.051
438.288
-185.33
-149.155
-203.928
-227.476
-188.365
-182.754
-129.855
-130.006
438.145
438.652
432.144
436.253
-189.691
-130
-131.565
438.439
-172.969
434.516
375.175
-61.6
-124.297
-41.5543
-136.264
-33.4163
422.655
317.076
-4.64092
-18.037
0.0848548
-14.1571
0.696664
314.418
433.775
436.634
432.658
435.137
429.998
433.331
-134.529
435.759
460.715
433.345
405.264
432.499
414.972
-42.1732
424.405
406.25
314.543
418.597
345.314
1.0017
-23.5738
0.759051
316.562
19.0958
274.903
7.9244
435.714
431.646
433.467
427.254
432.025
426.422
430.657
401.871
434.939
343.076
432.167
412.405
431.346
441.212
451.069
348.345
438.627
311.417
443.629
246.497
0.697403
326.189
2.04367
244.46
2.19395
303.522
1.78149
432.783
430.91
434.311
425.715
430.118
425.243
429.931
403.157
433.507
391.614
431.341
433.345
429.639
474.153
319.921
411.36
322.805
424.69
298.127
371.342
292.164
2.38835
1.79241
296.073
293.242
5.88061
434.43
431.009
434.428
426.323
430.652
428.584
431.847
373.314
433.762
-156.735
430.117
414.833
429.595
376.663
-148.889
-63.3347
352.517
224.953
410.282
278.01
1.45209
-44.3425
-0.670515
238.245
6.06153
310.411
-7.62643
434.195
-84.461
426.534
432.216
432.722
433.228
-154.014
-114.899
431.616
548.469
432.303
410.14
-70.9582
-93.3199
-102.763
403.501
318.67
394.816
-76.2099
-2.97962
-72.2653
-15.9581
300.346
-13.4127
-56.6773
-15.0819
-53.61
-63.3778
430.235
433.451
-39.138
-71.2938
-90.9253
-119.74
432.901
409.567
-80.5459
-126.758
-128.714
-138.324
-132.773
-83.6564
-137.76
-128.256
9.98345
13.5589
12.5719
2.16201
8.86996
-3.58893
-1.76383
-5.42675
-3.66221
-1.58848
-1.25276
-1.21272
-0.500983
-1.56117
-0.504451
-7.82095
-7.27823
-5.69211
-4.02401
-12.6602
-22.09
-6.01837
-17.5881
-21.1851
-9.12898
-18.2799
-14.0719
-4.01012
-4.43991
-9.82299
-5.29429
-3.33901
-0.614746
-4.13651
-0.754905
-6.13411
-3.91452
-7.62988
-3.20296
-2.89304
-0.624984
0.0697808
-22.1655
-13.067
-24.36
-5.65804
-18.1515
-5.70419
-26.767
-11.3214
-23.9737
-17.5047
-19.0405
-15.5473
-28.2884
-13.6349
-5.55912
-13.5242
-6.69913
-12.0179
-6.03794
-7.04837
-8.57603
-25.516
-16.6083
-33.1897
-6.75815
-29.0306
-23.1656
-20.3794
-35.5922
-31.1772
-30.2035
-14.8091
-42.1504
-37.6133
-33.871
-56.8718
-23.5163
-65.2378
-43.6379
-124.063
-42.2901
-68.1593
-62.5958
-61.0794
-50.9479
-134.567
-102.664
-119.684
-143.628
-187.099
-75.5122
-166.655
-144.87
-203.113
-108.954
-201.5
-164.903
-188.73
-175.779
-225.413
-166.957
-216.767
438.177
438.946
-210.305
433.506
437.669
-165.904
438.544
-167.688
-217.055
-146.511
436.975
458.303
-39.937
-131.446
-30.7702
-100.837
-22.1618
405.655
292.879
-2.94985
-9.40287
0.835118
-12.6183
2.22259
304.785
-2.42011
435.628
416.768
436.351
370.764
436.015
387.269
-28.1549
432.078
314.611
352.676
273.423
381.152
154.172
1.19862
304.186
301.892
-4.97711
286.758
-0.291469
422.169
432.715
361.393
436.043
411.417
433.394
451.051
309.601
417.205
300.094
419.895
274.025
438.737
258.237
1.51545
334.504
7.11216
293.925
-1.6434
256.577
-90.1006
413.931
431.401
439.32
432.108
557.381
430.962
619.408
318.814
442.682
222.856
423.276
258.779
434.082
275.01
-0.421835
303.219
4.25036
145.265
270.048
-35.2864
429.508
429.701
416.415
432.004
466.699
431.571
427.846
273.73
365.156
304.816
428.643
3.0193
436.884
194.984
267.457
1.08893
193.882
-81.3417
376.52
430.475
442.044
431.223
442.523
431.232
425.683
275.037
422.871
297.064
451.735
230.908
383.911
227.872
5.37102
334.245
-2.54819
160.962
264.18
-1.25156
412.176
432.28
408.018
430.784
209.122
428.911
408.23
290.294
416.703
399.66
146.181
430.235
284.98
-24.5862
-10.7837
272.719
-0.716322
256.487
-2.5722
433.332
-31.8014
-69.3412
430.368
429.49
429.876
432.887
419.496
-80.2306
-125.828
429.168
408.354
432.013
-77.5461
-136.885
-114.125
430.798
284.064
-126.537
-89.3579
-14.3754
-79.4671
-12.1033
311.511
-4.75388
-71.2688
-12.2142
-67.8266
-29.62
-56.2327
428.846
-22.6505
-63.3804
-131.224
-75.7875
-118.454
-122.436
-83.6451
-116.569
-131.972
-146.38
-138.063
-125.035
-99.8406
-143.942
-140.717
-34.2186
7.06344
-14.0422
-5.76021
-59.811
26.0861
-42.2293
-109.567
-38.4825
-54.5354
-70.2519
-124.124
-45.1799
-67.4593
-6.50316
11.7067
-6.7346
32.8552
-35.7847
18.8296
-29.011
-11.2296
-15.1843
-39.2545
-52.1778
-27.338
-6.52933
12.6371
-5.2022
13.0388
-23.37
13.3984
-8.59106
-12.5353
-6.84804
-5.76162
-21.5669
-21.9199
-12.0845
-9.92548
15.08
15.4246
15.2256
7.31896
10.7581
-6.79158
11.5627
-5.35786
9.07012
-2.0961
-4.8267
-8.44609
-8.38509
-4.43384
-4.05632
-0.971191
-5.71261
-1.37654
-1.76337
-1.26844
-0.974171
-2.17699
-1.06297
-1.23218
-0.403504
10.4692
8.89469
-1.64398
-3.01406
-3.25385
-1.98482
-1.39195
-1.2795
-0.326471
-5.96735
-5.87898
-7.59459
-6.80281
-6.71104
-9.07056
-13.0573
-7.60334
-10.57
-8.33562
-11.4166
-14.9071
-13.108
-11.1163
-9.33509
-13.8719
-12.8515
-8.62927
-6.02986
-8.45822
-5.3502
-9.711
-7.0262
-3.94031
-1.64969
-4.6241
-0.175538
-4.45234
-1.83168
-17.4026
-5.80581
-21.9746
-7.56777
-12.6842
-8.07616
-15.3895
-16.1966
-23.3
-17.5561
-16.2189
-15.7852
-20.3016
-19.1498
-25.6276
-7.35331
-20.1403
-11.6047
-29.49
-18.8916
-26.6953
-26.2715
-38.17
-34.9783
-44.5841
-143.942
-14.9205
-52.3795
-55.6218
-151.343
-148.472
-111.696
-59.4001
-57.3673
-164.228
-142.823
-37.619
232.378
-141.252
113.449
-55.0549
312.232
432.159
-161.059
-144.226
-198.49
-79.364
-163.986
436.233
438.982
-176.848
-206.512
-162.508
-178.276
-156.058
438.488
-43.4706
-112.599
-25.5358
-145.186
-62.9034
-24.0777
-3.49886
-13.5189
-0.264821
-17.1336
-3.22142
-8.61485
1.36041
-203.278
435.069
436.664
436.263
438.35
433.14
435.834
-144.692
436.34
402.365
437.557
420.35
434.947
420.131
-18.2025
405.262
290.801
429.486
-10.4878
426.469
216.221
2.76308
293.001
2.36221
-4.49486
2.95768
270.967
1.25271
557.443
434.641
426.715
434.968
357.574
434.452
363.014
268.369
414.77
253.49
415.662
277.531
443.21
20.7867
2.18048
318.834
309.276
4.44759
228.979
-115.342
384.08
436.197
418.471
434.589
439.532
428.665
491.054
203.226
438.286
264.883
437.377
138.891
402.036
166.61
0.174075
354.791
-37.2324
209.102
325.788
582.424
429.97
593.161
426.134
436.725
420.51
372.336
222.287
431.54
209.159
340.66
163.989
325.756
268.826
-50.2222
231.465
-30.6801
225.017
270.727
529.097
416.183
412.497
415.975
409.925
414.254
411.332
413.61
428.239
421.345
428.718
417.96
420.759
418.58
421.57
471.283
430.536
490.779
419.647
373.32
420.899
349.149
173.673
450.928
69.3864
328.444
267.344
274.887
240.424
163.369
267.63
492.873
239.361
758.787
453.271
432.663
210.393
424.039
393.921
428.313
430.66
209.54
394.282
191.836
264.312
183.213
440.508
234.11
373.35
-1.99402
210.223
717.282
263.026
390.769
428.033
409.345
430.029
548.682
428.38
402.075
180.702
427.397
325.814
437.904
230.686
425.396
209.4
-30.7236
283.294
-1.60688
313.215
233.046
-2.97139
429.525
431.749
432.823
424.796
428.448
430.639
431.746
439.109
431.972
427.944
443.081
430.806
356.425
301.155
-83.8947
423.277
233.832
342.326
294.982
-8.08011
-68.0608
-11.7999
259.081
-25.3148
296.765
-10.6354
421.328
184.927
24.5195
335.867
419.878
198.797
-43.7163
433.131
-39.0355
-66.5414
432.684
433.446
-49.9127
-54.015
-123.371
-84.8125
-119.859
432.102
324.142
-60.3318
-119.879
-92.0261
-126.25
-128.192
387.919
299.264
-129.919
-112.445
-12.4335
-77.5285
-21.4709
-14.1349
-67.2519
-18.1378
-73.6082
49.0346
-31.0993
-53.0235
21.2202
-45.1915
-125.908
-95.24
-71.9782
-140.291
-60.1077
-118.379
18.1327
-21.1908
23.5011
-29.2726
12.7398
-7.42692
-22.0776
-24.8374
-42.7975
-77.0132
-21.613
-30.1212
-11.8786
10.3732
-5.96249
11.0936
-1.32998
9.64822
0.313456
-18.2011
-9.11895
-10.0127
-12.7729
-16.8399
-7.80721
-11.3461
13.1281
7.3877
10.4174
14.2
12.451
9.17269
9.29354
-0.939593
7.9359
-0.853858
8.08498
1.47484
7.85608
2.22303
-6.91971
-3.16174
-3.83995
-4.07166
-6.34322
-0.258466
-3.22223
-3.91
-2.52679
-2.14889
-6.51337
-5.25741
-3.19318
-3.06507
-1.73568
-1.81957
-0.54535
-4.0787
-1.83016
-2.56495
-0.662143
9.79877
6.24925
8.82451
-0.793899
8.11633
1.86753
-2.88609
0.579129
-2.60255
-1.88567
-2.62099
-2.92676
-0.396293
-2.62435
-0.406406
-9.66905
-10.4757
-9.08396
-8.40815
-5.63882
-4.75915
-0.229325
-7.5822
-6.14163
-6.45251
-14.1369
-7.43883
-5.75973
-6.21943
-10.294
-7.52543
-10.5213
-7.39431
-9.73862
-7.25506
-10.1463
-9.40413
-13.7573
-12.8781
-10.7523
-9.91318
-13.5853
-12.8938
-5.47844
-10.6731
-7.9172
-8.65697
-6.11608
-10.9497
-8.18989
-0.19426
-4.78885
-1.93101
-4.55132
-0.726752
-4.88515
-1.95518
-167.102
436.83
438.777
-81.1285
-152.596
438.467
438.446
-155.74
438.333
-173.329
-146.472
437.918
430.576
-60.8836
-24.872
-119.2
-62.0614
434.365
-33.7875
-4.39135
-12.3454
1.60103
-29.287
-5.37405
-22.8864
-0.740287
438.397
431.927
435.276