/*--------------------------------*- C++ -*----------------------------------*\
| =========                 |                                                 |
| \\      /  F ield         | OpenFOAM: The Open Source CFD Toolbox           |
|  \\    /   O peration     | Version:  4.0                                   |
|   \\  /    A nd           | Web:      www.OpenFOAM.org                      |
|    \\/     M anipulation  |                                                 |
\*---------------------------------------------------------------------------*/
FoamFile
{
    version     2.0;
    format      ascii;
    class       volScalarField;
    location    "350";
    object      epsilon;
}
// * * * * * * * * * * * * * * * * * * * * * * * * * * * * * * * * * * * * * //

dimensions      [0 2 -3 0 0 0 0];

internalField   nonuniform List<scalar> 
3072
(
3.88782
3.12869
3.80733
3.779
3.36808
2.92852
3.50059
11.0853
35.3843
50.1257
57.2867
62.7028
8.41281
7.29359
6.09782
5.8273
7.0453
16.0116
24.956
27.6331
36.2552
39.7568
40.8607
41.5754
10.6977
8.76105
12.4083
17.2796
19.2622
20.3719
24.2326
27.8734
31.573
32.7515
34.0722
34.9444
15.4439
12.6002
15.8294
17.1391
18.1295
20.4722
24.2856
27.3239
29.2341
30.3235
31.4053
32.1769
17.5721
14.4496
16.2129
16.7801
18.3652
21.2513
24.68
27.1216
28.5854
29.5325
30.39
31.0271
18.5718
14.5831
15.877
16.8781
19.1094
22.3022
25.255
27.3404
28.6357
29.4627
30.1409
30.666
18.3288
13.845
15.0283
17.2398
20.3008
23.6212
26.377
28.2291
29.3841
30.1392
30.7326
31.1946
17.9364
13.0519
15.2628
18.8539
23.0534
26.6876
29.3355
31.0066
31.9862
32.5613
32.9413
33.2106
18.2622
13.6667
18.2253
24.4684
30.2734
34.3903
36.8349
38.0205
38.4185
38.3563
38.0795
37.7233
19.8848
17.5334
29.4019
40.2256
47.737
51.7022
52.9107
52.4121
50.9716
49.1316
47.234
45.4452
24.3001
34.7393
59.6829
75.4048
81.3582
81.462
78.4786
74.0494
69.1461
64.2964
59.8162
55.8234
112.543
108.108
119.439
122.892
120.068
112.513
103.933
95.2213
86.8982
79.1531
72.1847
66.0276
65.4944
66.8755
66.5607
65.8858
63.8872
60.1072
54.9175
48.01
39.599
29.9293
19.8003
25.3589
41.9521
42.1484
42.1385
42.1048
42.3723
43.3411
45.5844
49.5724
54.7046
60.4064
64.8879
80.2038
35.4561
35.7141
35.7297
35.7155
36.1594
37.5271
40.3058
45.1758
53.1266
65.3695
84.4825
125.365
32.64
32.9124
33.0862
33.2943
33.866
35.2421
38.0264
43.1044
51.8169
66.8394
95.3261
158.176
31.4325
31.6752
31.83
32.0419
32.5879
33.8685
36.4912
41.4211
50.3265
66.7804
101.298
183.26
31.0339
31.2786
31.4554
31.6991
32.2476
33.4774
35.9913
40.7457
49.5182
66.3792
104.668
206.006
31.5365
31.7865
31.9938
32.2636
32.7879
33.9096
36.2125
40.6983
49.2249
65.8996
106.27
225.889
33.398
33.5329
33.6618
33.8605
34.2852
35.2326
37.2514
41.3429
49.4512
65.8934
106.873
250.172
37.356
37.0161
36.7455
36.6383
36.8214
37.4705
39.0973
42.6872
50.2424
66.2439
107.952
278.435
43.8537
42.4989
41.401
40.6135
40.2782
40.5821
41.71
44.674
51.5178
66.8743
109.073
308.445
52.3851
49.5224
47.2134
45.4721
44.3523
44.1426
44.8521
47.1222
53.0446
67.5881
110.729
345.959
60.738
56.3631
52.85
50.1923
48.3662
47.5502
47.9357
49.5398
54.128
67.1875
110.6
408.697
3.89619
3.13471
3.81111
3.78251
3.3712
2.92859
3.49628
11.0314
35.3178
50.0753
57.2419
62.6582
8.40819
7.28924
6.09221
5.82276
7.03367
15.9748
24.935
27.6045
36.2273
39.7321
40.8369
41.5519
10.6843
8.74543
12.378
17.256
19.2589
20.3593
24.2103
27.8478
31.5497
32.7287
34.0499
34.9233
15.4228
12.5813
15.8104
17.1228
18.1195
20.4535
24.2615
27.3002
29.2131
30.3021
31.3836
32.1565
17.5486
14.4308
16.1982
16.767
18.3495
21.2277
24.6577
27.1025
28.5669
29.5132
30.3702
31.0077
18.5463
14.5676
15.8634
16.8638
19.0908
22.2833
25.2375
27.3236
28.6194
29.4461
30.1236
30.6484
18.3115
13.8339
15.0173
17.227
20.2867
23.6075
26.364
28.2166
29.3713
30.1252
30.7176
31.1791
17.93
13.0466
15.2552
18.8467
23.0476
26.6825
29.3302
31.0008
31.9792
32.5525
32.931
33.1992
18.2617
13.6655
18.2265
24.4737
30.2819
34.3991
36.8422
38.0255
38.4212
38.3561
38.0766
37.7184
19.8911
17.5398
29.4166
40.2493
47.7665
51.7313
52.9362
52.4328
50.9872
49.1423
47.2406
45.4483
24.3104
34.7539
59.7122
75.4445
81.401
81.5034
78.5158
74.0812
69.1719
64.3166
59.8313
55.834
112.557
108.123
119.458
122.919
120.1
112.547
103.966
95.2516
86.9249
79.1758
72.2031
66.0419
65.4538
66.8373
66.5253
65.8563
63.8629
60.0871
54.902
47.9981
39.591
29.9241
19.7973
25.354
41.9296
42.1277
42.1209
42.0899
42.3598
43.3304
45.5749
49.5633
54.6955
60.3977
64.8788
80.1917
35.4368
35.6962
35.7138
35.7016
36.148
37.5171
40.2969
45.1676
53.1186
65.3608
84.4722
125.349
32.6211
32.8954
33.0709
33.2808
33.8541
35.2316
38.017
43.0959
51.8087
66.8308
95.3157
158.156
31.4143
31.6585
31.8147
32.0281
32.5755
33.8574
36.4812
41.412
50.318
66.7721
101.288
183.239
31.0169
31.2624
31.4404
31.6852
32.235
33.466
35.9811
40.7364
49.5096
66.3711
104.658
205.984
31.5211
31.7716
31.9797
32.2505
32.7758
33.8986
36.2025
40.6891
49.2166
65.8917
106.262
225.867
33.3859
33.5207
33.65
33.8491
34.2745
35.2228
37.2423
41.3345
49.4434
65.8863
106.865
250.151
37.3494
37.0085
36.7374
36.63
36.8133
37.4626
39.0898
42.6801
50.2357
66.2374
107.945
278.416
43.8539
42.4971
41.3977
40.6094
40.2734
40.5771
41.7049
44.6689
51.5127
66.8693
109.067
308.43
52.392
49.5264
47.2151
45.4721
44.3512
44.1406
44.8499
47.1196
53.0419
67.5851
110.725
345.954
60.7487
56.3708
52.8553
50.1956
48.3681
47.551
47.9362
49.5399
54.1278
67.187
110.6
408.703
3.89378
3.13007
3.80513
3.77536
3.3627
2.92313
3.49671
11.0927
35.3968
50.1406
57.3046
62.7234
8.41066
7.28981
6.09273
5.81973
7.03751
15.9994
24.9532
27.6366
36.2636
39.7669
40.8721
41.5872
10.6919
8.75653
12.4016
17.2678
19.2481
20.3697
24.2358
27.8806
31.5818
32.7614
34.0829
34.9555
15.4414
12.5963
15.8212
17.1289
18.1252
20.4744
24.2912
27.3318
29.243
30.3335
31.416
32.188
17.5725
14.4463
16.2077
16.7758
18.3651
21.2576
24.687
27.1294
28.5941
29.5421
30.4004
31.038
18.5761
14.5814
15.8731
16.8764
19.1132
22.308
25.2616
27.3481
28.6444
29.4724
30.1513
30.677
18.3345
13.8453
15.0276
17.2408
20.3054
23.6275
26.3843
28.2375
29.3935
30.1495
30.7436
31.2061
17.945
13.0541
15.2642
18.8579
23.06
26.696
29.3452
31.0174
31.9978
32.5736
32.9539
33.2234
18.2711
13.6701
18.2301
24.4761
30.2837
34.4027
36.8489
38.0354
38.434
38.3717
38.0945
37.7378
19.8933
17.5387
29.41
40.2374
47.752
51.7196
52.9295
52.4312
50.9902
49.1493
47.2506
45.4607
24.3092
34.7481
59.6947
75.4188
81.3738
81.4792
78.4971
74.0682
69.1644
64.3138
59.8324
55.8381
112.577
108.125
119.451
122.899
120.076
112.523
103.944
95.2341
86.9117
79.1666
72.1976
66.0394
65.5165
66.8975
66.582
65.9051
63.9045
60.1215
54.929
48.0184
39.6051
29.9316
19.8007
25.3584
41.9638
42.1594
42.1481
42.1133
42.3798
43.3474
45.5894
49.5772
54.7088
60.4103
64.8891
80.2051
35.4671
35.7249
35.7403
35.7256
36.1689
37.536
40.3143
45.184
53.1347
65.3777
84.49
125.373
32.6512
32.9236
33.0973
33.3053
33.8767
35.2527
38.0368
43.1147
51.8272
66.8498
95.3388
158.194
31.4437
31.6866
31.8416
32.0535
32.5995
33.8801
36.5028
41.4329
50.3389
66.7939
101.314
183.285
31.0454
31.2904
31.4673
31.711
32.2595
33.4892
36.0033
40.7581
49.5315
66.394
104.686
206.039
31.5484
31.7986
32.0059
32.2756
32.7998
33.9215
36.2246
40.7108
49.2384
65.9153
106.29
225.928
33.4108
33.5455
33.6741
33.8725
34.2969
35.2442
37.2631
41.3552
49.4648
65.9094
106.894
250.219
37.3698
37.0293
36.7579
36.65
36.8327
37.4815
39.1084
42.6989
50.2554
66.2597
107.974
278.489
43.8679
42.512
41.413
40.6247
40.2886
40.5923
41.7202
44.6847
51.53
66.8895
109.095
308.507
52.3984
49.5344
47.2243
45.4821
44.3616
44.1516
44.8612
47.1318
53.0557
67.6024
110.752
346.032
60.7487
56.3729
52.8589
50.2005
48.3741
47.558
47.9435
49.5482
54.1381
67.2005
110.621
408.794
3.89664
3.13501
3.81165
3.78307
3.37168
2.92928
3.49755
11.0401
35.3325
50.0899
57.2564
62.6732
8.40992
7.2908
6.09359
5.82431
7.03674
15.9829
24.9429
27.6131
36.2366
39.7411
40.8456
41.5604
10.6868
8.74776
12.3817
17.262
19.2658
20.366
24.217
27.855
31.5569
32.7356
34.0564
34.9294
15.4253
12.5844
15.8154
17.1287
18.1254
20.4592
24.2674
27.3065
29.2189
30.3078
31.3893
32.1618
17.5507
14.4344
16.2033
16.7723
18.3544
21.2321
24.6624
27.107
28.5715
29.5181
30.3751
31.0125
18.5474
14.5709
15.868
16.8683
19.0944
22.287
25.2413
27.3275
28.6233
29.4502
30.1278
30.6526
18.3123
13.8365
15.0209
17.2306
20.2898
23.6107
26.3673
28.2197
29.3744
30.1287
30.7212
31.1828
17.9301
13.0485
15.258
18.8494
23.0503
26.6851
29.3327
31.0031
31.9814
32.555
32.9336
33.202
18.2621
13.6672
18.2289
24.4762
30.2844
34.4014
36.8441
38.0271
38.4226
38.3575
38.0781
37.7199
19.8924
17.5419
29.4195
40.2522
47.7692
51.7333
52.9376
52.4337
50.9877
49.1427
47.2409
45.4487
24.3138
34.7585
59.7165
75.4476
81.4032
81.5046
78.5163
74.081
69.1713
64.3158
59.8305
55.8334
112.579
108.133
119.464
122.922
120.102
112.548
103.966
95.251
86.9238
79.1744
72.2017
66.0408
65.4684
66.8517
66.5393
65.8695
63.875
60.0979
54.9113
48.0058
39.5963
29.9283
19.8001
25.3589
41.9376
42.1354
42.1279
42.0965
42.3659
43.3362
45.5807
49.5693
54.7017
60.4037
64.8864
80.2027
35.4424
35.7015
35.7186
35.706
36.1519
37.5206
40.3002
45.1707
53.1218
65.3646
84.4781
125.36
32.626
32.8999
33.075
33.2844
33.8573
35.2344
38.0193
43.0979
51.8107
66.8333
95.3194
158.167
31.4188
31.6625
31.8184
32.0313
32.5783
33.8598
36.4832
41.4136
50.3192
66.7731
101.289
183.247
31.0209
31.2661
31.4437
31.6882
32.2377
33.4683
35.983
40.7379
49.5106
66.3716
104.659
205.991
31.5246
31.7749
31.9827
32.2532
32.7782
33.9006
36.2042
40.6905
49.2176
65.8919
106.262
225.871
33.3885
33.5232
33.6523
33.8513
34.2765
35.2244
37.2438
41.3357
49.4442
65.8864
106.864
250.153
37.351
37.0101
36.7389
36.6314
36.8145
37.4638
39.0908
42.6809
50.2362
66.2372
107.943
278.412
43.8544
42.4976
41.3984
40.61
40.274
40.5777
41.7054
44.6691
51.5126
66.8684
109.064
308.419
52.3916
49.5261
47.2151
45.4722
44.3513
44.1407
44.8498
47.1193
53.0409
67.5832
110.721
345.933
60.7478
56.3703
52.8551
50.1956
48.3682
47.5509
47.9359
49.5391
54.1261
67.1838
110.593
408.665
155.13
148.367
140.854
132.783
125.425
117.636
109.622
101.551
93.5561
85.6717
78.2643
71.4527
95.7562
97.5369
98.2067
97.9675
97.2343
95.6396
93.2927
90.1171
85.7931
80.3824
74.8535
69.3315
67.2196
68.7152
69.8232
70.5416
71.1197
71.2363
70.8961
70.0249
68.545
66.6463
64.2218
61.1427
52.1766
52.7763
53.1344
53.2757
53.3884
53.4332
53.3773
53.1889
52.816
52.2453
51.4789
50.5436
65.4166
60.3872
56.3312
53.2496
51.1443
49.987
50.1166
51.0863
54.1032
62.5546
85.593
168.39
64.1454
59.8131
56.3244
53.709
51.9299
50.8346
50.7502
51.2409
52.8725
56.9924
67.2577
91.4325
57.8959
55.2906
53.1616
51.5494
50.3553
49.4909
49.0572
49.0756
49.8576
51.452
55.9689
64.4655
49.7429
48.9066
47.905
46.8566
45.8276
44.9276
44.3002
44.1042
44.6218
45.3822
47.6081
50.9334
155.136
148.369
140.855
132.788
125.435
117.651
109.64
101.57
93.5756
85.6899
78.2805
71.4664
95.7596
97.5376
98.2051
97.9666
97.2357
95.644
93.2989
90.126
85.8055
80.3951
74.8656
69.3424
67.2239
68.7181
69.8249
70.543
71.1216
71.2397
70.9006
70.0307
68.5519
66.6536
64.2297
61.151
52.1791
52.7792
53.1371
53.2785
53.3913
53.4367
53.3814
53.1937
52.8216
52.2515
51.4856
50.5509
65.4276
60.396
56.338
53.2548
51.1485
49.9903
50.1198
51.0892
54.1059
62.5572
85.5955
168.394
64.155
59.8213
56.3314
53.7152
51.9355
50.8398
50.7552
51.2461
52.8777
56.9977
67.2632
91.4381
57.9038
55.2981
53.1689
51.5565
50.3624
49.498
49.0644
49.0831
49.8652
51.4598
55.9768
64.4736
49.7508
48.9147
47.9133
46.8651
45.8364
44.9368
44.3097
44.1139
44.6316
45.3919
47.6179
50.9428
155.139
148.374
140.857
132.783
125.426
117.638
109.626
101.557
93.5639
85.6803
78.2731
71.4612
95.7647
97.5448
98.2122
97.9715
97.2375
95.6427
93.2963
90.1215
85.7987
80.3889
74.8604
69.3381
67.2317
68.7264
69.8333
70.5507
71.1282
71.2438
70.9034
70.0322
68.5522
66.6535
64.2288
61.1492
52.188
52.7879
53.1456
53.2864
53.3988
53.4427
53.3864
53.1977
52.8245
52.2536
51.4868
50.5511
65.4244
60.3946
56.3382
53.2563
51.151
49.9939
50.1237
51.094
54.1122
62.566
85.6095
168.429
64.1517
59.8192
56.3303
53.715
51.9361
50.8411
50.7573
51.2485
52.881
57.0028
67.2716
91.4541
57.9021
55.2968
53.1679
51.5559
50.3621
49.4979
49.0651
49.0841
49.867
51.4629
55.9824
64.4826
49.7504
48.9142
47.9127
46.8646
45.836
44.9367
44.3103
44.1154
44.6339
45.3954
47.623
50.9501
155.164
148.387
140.868
132.798
125.444
117.658
109.645
101.573
93.5771
85.6904
78.2805
71.4663
95.7828
97.5605
98.2258
97.9857
97.2529
95.6588
93.3121
90.1365
85.812
80.4
74.8696
69.3456
67.2431
68.7382
69.845
70.5627
71.1407
71.2569
70.9166
70.0451
68.5644
66.665
64.2394
61.1584
52.1969
52.7976
53.1556
53.2966
53.4092
53.4535
53.3974
53.2085
52.8351
52.2638
51.4965
50.56
65.4278
60.3965
56.3387
53.2557
51.1493
49.9906
50.1195
51.0881
54.1036
62.5533
85.5893
168.383
64.1579
59.8243
56.3343
53.7177
51.9373
50.8409
50.7546
51.2447
52.875
56.9934
67.2568
91.4288
57.9104
55.3041
53.174
51.5605
50.3649
49.4991
49.0633
49.0808
49.8611
51.4544
55.9695
64.4646
49.7582
48.921
47.9179
46.8679
45.837
44.9354
44.3063
44.1083
44.6247
45.384
47.6092
50.9346
42.5934
42.4172
42.2101
42.0076
41.9114
41.8612
41.834
41.818
41.8134
41.8306
41.8751
41.9357
35.2308
34.9821
34.7898
34.6729
34.6558
34.6869
34.7715
34.9255
35.1509
35.405
35.5839
35.5279
29.7732
29.715
29.717
29.7599
29.8224
29.8781
29.9611
30.1294
30.4182
30.8237
31.2651
31.5116
25.6274
25.7913
25.9804
26.1421
26.2258
26.1915
26.0909
26.0568
26.2036
26.7974
28.2535
30.9353
41.8989
40.3315
38.7462
37.856
37.299
37.2533
37.6774
38.5233
39.6669
40.8352
42.1202
42.8913
35.0261
32.0116
30.0547
29.4852
29.5955
30.3558
31.5512
32.9635
34.2336
35.1894
35.8641
35.8811
31.3037
25.6338
23.3904
23.0605
23.6305
24.8167
26.3547
27.9018
29.099
29.8849
30.3102
30.1994
33.2971
21.1667
18.4116
18.1591
18.9644
20.3103
21.9122
23.4196
24.535
25.251
25.6436
25.689
42.5962
42.4202
42.2134
42.0114
41.9157
41.8661
41.8394
41.8242
41.8205
41.8385
41.8841
41.9458
35.2339
34.9855
34.7939
34.6778
34.6614
34.693
34.7782
34.9331
35.1596
35.415
35.5956
35.5416
29.7766
29.719
29.7219
29.7657
29.829
29.8854
29.9691
30.1384
30.4287
30.8359
31.2795
31.5282
25.6312
25.7956
25.9858
26.1486
26.2332
26.1998
26.0998
26.0666
26.2152
26.8106
28.2696
30.9558
41.91
40.3421
38.7569
37.8668
37.3099
37.2643
37.6882
38.5338
39.677
40.8449
42.1294
42.9002
35.0405
32.024
30.0663
29.4966
29.6067
30.3668
31.562
32.9737
34.2432
35.1985
35.8727
35.8891
31.3215
25.6471
23.402
23.0715
23.6412
24.8271
26.3649
27.9113
29.1079
29.8934
30.3181
30.2066
33.3215
21.1803
18.4226
18.1693
18.9741
20.3198
21.9216
23.4284
24.5432
25.2587
25.6507
25.6953
42.6044
42.4279
42.2205
42.0177
41.9212
41.8706
41.8431
41.8269
41.8221
41.8392
41.8838
41.945
35.2413
34.9921
34.7998
34.6828
34.6656
34.6965
34.7809
34.935
35.1605
35.4151
35.5949
35.5405
29.783
29.7245
29.7266
29.7696
29.8322
29.8881
29.9712
30.1399
30.4295
30.8361
31.2791
31.5276
25.6365
25.8001
25.9895
26.1517
26.2357
26.2019
26.1016
26.0682
26.2167
26.812
28.2709
30.957
41.9094
40.342
38.7572
37.8678
37.3115
37.2666
37.6915
38.5378
39.6819
40.8509
42.1367
42.9082
35.0403
32.0247
30.0678
29.4989
29.6098
30.3705
31.5663
32.9788
34.2492
35.2052
35.88
35.8968
31.3218
25.6482
23.4039
23.0742
23.6446
24.8311
26.3694
27.9165
29.1138
29.8996
30.3247
30.2132
33.3223
21.1817
18.4245
18.1717
18.9773
20.3235
21.9258
23.4331
24.5484
25.2641
25.6563
25.7008
42.6132
42.4368
42.2293
42.0265
41.9299
41.8791
41.8513
41.8347
41.8293
41.8458
41.8893
41.9486
35.2489
34.9996
34.807
34.6897
34.672
34.7023
34.7861
34.9393
35.1638
35.417
35.5949
35.5375
29.7893
29.7305
29.7323
29.7747
29.8364
29.8911
29.9731
30.1403
30.4281
30.8327
31.2733
31.519
25.6416
25.8048
25.9936
26.155
26.2379
26.2024
26.1005
26.0652
26.2106
26.8038
28.2593
30.9411
41.9103
40.3416
38.7548
37.863
37.3044
37.2574
37.6799
38.5247
39.6676
40.8357
42.1213
42.8928
35.0345
32.0188
30.0603
29.4896
29.5985
30.3578
31.5521
32.9635
34.2333
35.1894
35.8649
35.8825
31.31
25.6387
23.3939
23.0631
23.6323
24.8177
26.3549
27.9014
29.0985
29.8846
30.3108
30.2007
33.3022
21.1698
18.4137
18.1607
18.9654
20.3107
21.912
23.4191
24.5346
25.2508
25.6443
25.6903
22.2655
22.6224
22.9476
23.168
23.2034
22.9421
22.4495
21.8267
21.1538
20.5282
20.3383
23.0049
19.3879
19.8757
20.2711
20.5003
20.4196
19.8518
18.8259
17.3369
15.2708
12.2464
7.17933
2.85459
16.8098
17.3692
17.7905
17.9956
17.7773
16.93
15.4283
13.2289
10.251
6.45795
2.75445
1.65567
14.4559
15.0393
15.4606
15.63
15.3071
14.2883
12.5257
10.0356
6.9584
3.79995
1.76436
1.54712
12.3123
12.8864
13.2931
13.4316
13.0631
12.0074
10.224
7.82053
5.12558
2.80787
1.53559
1.51215
10.3932
10.9362
11.321
11.4403
11.0826
10.1034
8.47435
6.36551
4.17063
2.45774
1.50796
1.44399
8.72202
9.22118
9.58121
9.69163
9.38183
8.5528
7.1674
5.41605
3.67106
2.35357
1.55105
1.30638
7.32561
7.77613
8.11096
8.21672
7.97277
7.32647
6.2034
4.79117
3.40621
2.3431
1.6127
1.12012
6.24337
6.64928
6.9588
7.06646
6.89145
6.41073
5.52798
4.40249
3.29197
2.3861
1.66063
0.887518
5.56982
5.9473
6.24481
6.36131
6.24665
5.88175
5.18125
4.27268
3.32738
2.48929
1.68107
0.62517
5.7129
6.11924
6.45099
6.5966
6.514
6.16297
5.54282
4.72551
3.77716
2.7941
1.68088
0.35907
10.5755
11.4535
12.2273
12.5848
12.4195
11.7329
10.5623
8.88674
6.73219
4.21866
1.99566
0.483417
51.6394
17.533
14.4555
14.3285
15.2337
16.5837
18.1104
19.5226
20.5819
21.2946
21.76
22.023
29.4496
12.9895
11.1715
11.2878
12.2083
13.4818
14.8752
16.1698
17.1766
17.9174
18.4688
18.9221
20.1064
9.64959
8.58469
8.86658
9.74633
10.9036
12.1459
13.3108
14.2591
15.0091
15.6352
16.2181
14.3873
7.2612
6.59309
6.9444
7.75008
8.77376
9.86419
10.8953
11.775
12.5105
13.1685
13.8094
10.4606
5.52305
5.07444
5.42844
6.14321
7.03036
7.97412
8.8776
9.67594
10.3733
11.0193
11.6638
7.59108
4.2305
3.91485
4.2405
4.86211
5.62004
6.42723
7.21109
7.92228
8.56257
9.16891
9.77968
5.47232
3.26481
3.0258
3.31486
3.8534
4.49676
5.18179
5.85666
6.4823
7.05721
7.60845
8.16466
3.91289
2.52152
2.34118
2.59792
3.07378
3.62271
4.20403
4.78484
5.33346
5.84454
6.33682
6.83184
2.7167
1.90607
1.80681
2.05345
2.49293
2.97254
3.47314
3.98048
4.4684
4.92694
5.36755
5.80704
1.76757
1.37358
1.38927
1.67929
2.12118
2.56681
3.01713
3.47874
3.92817
4.35467
4.7656
5.17021
1.03947
0.944699
1.12821
1.54747
2.04287
2.50684
2.96805
3.45614
3.94333
4.4089
4.8553
5.28783
0.782239
1.04495
1.80869
2.70379
3.46811
4.19771
5.01237
5.97741
6.99097
7.94997
8.84324
9.70863
22.2693
22.6271
22.9534
23.175
23.2115
22.9511
22.4589
21.8367
21.1646
20.5398
20.3507
23.02
19.3915
19.8806
20.2771
20.5076
20.4282
19.8611
18.8354
17.3462
15.2795
12.2535
7.18351
2.85679
16.8132
17.3741
17.7965
18.0028
17.7859
16.9393
15.4374
13.2371
10.2575
6.46193
2.75635
1.65728
14.4592
15.0439
15.4663
15.637
15.3154
14.2971
12.5341
10.0426
6.96333
3.80262
1.76586
1.54874
12.3154
12.8906
13.2984
13.4381
13.0708
12.0154
10.2315
7.82656
5.12961
2.81012
1.53705
1.51375
10.3961
10.94
11.3258
11.4462
11.0895
10.1106
8.48098
6.37076
4.17414
2.45988
1.50945
1.44559
8.72469
9.22455
9.58547
9.69681
9.38782
8.55907
7.17323
5.42067
3.67428
2.35571
1.55265
1.30784
7.32809
7.77911
8.11471
8.22123
7.97789
7.33187
6.20854
4.79531
3.40925
2.34528
1.61445
1.12141
6.24566
6.6519
6.96216
7.07042
6.89586
6.41541
5.53257
4.40628
3.29492
2.38835
1.6627
0.888559
5.57196
5.94973
6.24792
6.36496
6.25066
5.886
5.1855
4.27632
3.33038
2.49169
1.6832
0.625933
5.71491
6.12177
6.45429
6.60048
6.51829
6.16746
5.54727
4.72948
3.78064
2.79693
1.68299
0.359529
10.579
11.4583
12.2336
12.5926
12.4281
11.7418
10.571
8.89448
6.73869
4.22333
1.99809
0.484066
51.684
17.5463
14.4655
14.3377
15.2425
16.5923
18.1189
19.5307
20.5894
21.3015
21.7663
22.0284
29.478
13.0007
11.1802
11.2959
12.2161
13.4896
14.8829
16.1772
17.1836
17.9237
18.4744
18.9267
20.1272
9.6588
8.5922
8.87366
9.75332
10.9106
12.1529
13.3177
14.2654
15.0149
15.6402
16.2221
14.403
7.26874
6.59954
6.9506
7.75631
8.78008
9.87055
10.9015
11.7808
12.5158
13.1729
13.813
10.4726
5.52925
5.07994
5.43387
6.14876
7.03605
7.97989
8.8833
9.68133
10.3782
11.0235
11.6671
7.60022
4.2356
3.91951
4.24525
4.86706
5.62517
6.43248
7.21631
7.92727
8.56713
9.17285
9.78289
5.47917
3.26897
3.02974
3.319
3.85782
4.5014
5.18658
5.86147
6.48695
7.06153
7.61225
8.1678
3.91795
2.52489
2.34449
2.60154
3.07774
3.62693
4.20842
4.7893
5.33783
5.84865
6.34052
6.83498
2.72033
1.90873
1.80957
2.05663
2.49652
2.97642
3.47721
3.98467
4.47257
4.93093
5.37122
5.81025
1.77
1.37561
1.39156
1.68219
2.12458
2.57054
3.02107
3.48284
3.93229
4.35868
4.76937
5.17363
1.04092
0.946184
1.1303
1.55043
2.04644
2.5108
2.97227
3.46063
3.94793
4.41345
4.85965
5.29189
0.783201
1.04651
1.8125
2.70909
3.47437
4.20457
5.01985
5.98563
6.99963
7.9587
8.85178
9.71665
22.2737
22.6306
22.9562
23.1772
23.2132
22.9526
22.4605
21.8385
21.1669
20.5427
20.3545
23.0237
19.395
19.8831
20.279
20.5089
20.4292
19.8621
18.8366
17.348
15.2819
12.2566
7.18586
2.85694
16.816
17.3759
17.7977
18.0035
17.7862
16.9397
15.4382
13.2384
10.2594
6.46386
2.75694
1.65701
14.4616
15.0453
15.467
15.6372
15.3152
14.297
12.5344
10.0434
6.96447
3.80342
1.76584
1.54839
12.3176
12.8918
13.2989
13.438
13.0703
12.015
10.2314
7.82685
5.13007
2.81029
1.5368
1.5134
10.3982
10.9412
11.3263
11.446
11.0889
10.1099
8.48058
6.37064
4.17414
2.45973
1.5091
1.44522
8.7269
9.22585
9.58604
9.69672
9.38733
8.55838
7.17266
5.4203
3.67398
2.35538
1.55218
1.30751
7.33045
7.78062
8.11549
8.22133
7.97763
7.3313
6.20792
4.79482
3.40877
2.34486
1.61391
1.12113
6.24823
6.65366
6.96323
7.07071
6.89591
6.41502
5.53198
4.4058
3.29431
2.38791
1.66212
0.888391
5.57483
5.95183
6.24927
6.36552
6.25094
5.88584
5.18502
4.27583
3.32974
2.49115
1.68266
0.625766
5.71843
6.12443
6.45605
6.60137
6.51874
6.16741
5.54692
4.729
3.77987
2.79631
1.68246
0.359437
10.5858
11.4639
12.2369
12.5943
12.4287
11.7416
10.5704
8.89354
6.73753
4.22225
1.99747
0.483896
51.6846
17.5475
14.467
14.3396
15.245
16.5954
18.1224
19.5346
20.5937
21.3059
21.7709
22.0328
29.4786
13.0013
11.1812
11.2972
12.2179
13.4918
14.8855
16.1802
17.1868
17.9272
18.4779
18.9302
20.1273
9.65893
8.59257
8.87434
9.75436
10.912
12.1546
13.3197
14.2677
15.0174
15.6429
16.2247
14.4027
7.26852
6.59943
6.95069
7.75666
8.78068
9.87139
10.9026
11.7822
12.5174
13.1747
13.8149
10.4721
5.52881
5.07947
5.43348
6.14851
7.03597
7.97998
8.8836
9.68187
10.379
11.0245
11.6683
7.59956
4.23506
3.91883
4.2445
4.86633
5.62453
6.43195
7.21593
7.9271
8.56718
9.17313
9.78334
5.47854
3.26845
3.02894
3.318
3.85675
4.50033
5.18555
5.86054
6.48619
7.06096
7.6119
8.16763
3.9174
2.52442
2.34366
2.60039
3.07642
3.62556
4.20703
4.78795
5.3366
5.84759
6.33965
6.83428
2.71988
1.90833
1.80875
2.05539
2.49505
2.97485
3.47558
3.98301
4.47098
4.92947
5.36992
5.80911
1.76967
1.37523
1.39078
1.68085
2.12296
2.5688
3.01924
3.48092
3.93041
4.35688
4.76771
5.17209
1.04073
0.945826
1.12941
1.54888
2.04459
2.50882
2.97018
3.45833
3.94559
4.41117
4.85751
5.28985
0.783177
1.04613
1.81048
2.70638
3.47131
4.20138
5.01629
5.98146
6.99522
7.95439
8.84761
9.7127
22.2777
22.6341
22.9591
23.1791
23.2138
22.9511
22.4571
21.8329
21.1586
20.5319
20.3413
23.0082
19.3981
19.8856
20.281
20.5099
20.4285
19.8594
18.832
17.3416
15.2741
12.2484
7.18066
2.85596
16.8184
17.3777
17.799
18.0038
17.7848
16.9365
15.4335
13.2327
10.2536
6.45958
2.75564
1.65692
14.4632
15.0465
15.4678
15.637
15.3136
14.294
12.5303
10.0389
6.9607
3.80148
1.76542
1.54836
12.3186
12.8925
13.2992
13.4376
13.0688
12.0124
10.2281
7.82362
5.12775
2.80932
1.5366
1.51335
10.3987
10.9415
11.3263
11.4455
11.0875
10.1078
8.47804
6.36837
4.17269
2.45915
1.50897
1.44513
8.72683
9.22575
9.58577
9.69605
9.38606
8.5567
7.17073
5.4187
3.67303
2.35496
1.55209
1.30739
7.3299
7.78016
8.11496
8.22056
7.97649
7.32993
6.20643
4.79364
3.40811
2.34451
1.61378
1.12097
6.24725
6.65288
6.96243
7.06991
6.8948
6.41388
5.53079
4.40484
3.29385
2.38754
1.66175
0.888185
5.57347
5.95073
6.2483
6.36462
6.24987
5.88479
5.184
4.27504
3.32932
2.49081
1.68221
0.625642
5.71662
6.12296
6.45486
6.60031
6.51757
6.16634
5.5459
4.72822
3.77942
2.79584
1.68203
0.359339
10.5825
11.4612
12.2351
12.5922
12.4267
11.7397
10.5684
8.89197
6.73628
4.22136
1.99703
0.483764
51.647
17.5349
14.4567
14.3294
15.2343
16.5838
18.1101
19.5221
20.5815
21.2947
21.7609
22.0241
29.4524
12.9904
11.1721
11.2882
12.2085
13.4819
14.8749
16.1694
17.1764
17.9177
18.4699
18.9227
20.1075
9.64989
8.58487
8.86673
9.74642
10.9035
12.1457
13.3104
14.2588
15.0094
15.6362
16.2186
14.3875
7.26116
6.59301
6.94434
7.75003
8.77365
9.86394
10.8949
11.7747
12.5105
13.1689
13.81
10.4605
5.52285
5.07421
5.42824
6.14304
7.03017
7.97385
8.87724
9.67559
10.3731
11.0194
11.6642
7.59085
4.23024
3.91454
4.2402
4.86183
5.61977
6.42691
7.21069
7.92185
8.56217
9.16872
9.7798
5.47211
3.26455
3.02547
3.31448
3.85305
4.49641
5.1814
5.85621
6.48178
7.05667
7.608
8.16441
3.91272
2.52129
2.34085
2.59751
3.07335
3.62228
4.20357
4.78432
5.33286
5.84387
6.33615
6.83126
2.71663
1.9059
1.80652
2.05303
2.49245
2.97204
3.47261
3.9799
4.46774
4.92618
5.36669
5.80618
1.76757
1.37347
1.38903
1.67886
2.12064
2.56624
3.01653
3.47809
3.92744
4.3538
4.76456
5.16909
1.03952
0.944646
1.12799
1.54699
2.04225
2.50618
2.96736
3.45539
3.94246
4.40785
4.85394
5.28622
0.782293
1.04494
1.80815
2.70289
3.46705
4.19668
5.01136
5.97619
6.98936
7.94784
8.84015
9.70459
)
;

boundaryField
{
    rotor
    {
        Cmu             0.09;
        kappa           0.41;
        E               9.8;
        type            epsilonWallFunction;
        value           nonuniform List<scalar> 
192
(
3.88782
3.12869
3.80733
3.779
3.36808
2.92852
3.50059
11.0853
35.3843
50.1257
57.2867
62.7028
65.4944
66.8755
66.5607
65.8858
63.8872
60.1072
54.9175
48.01
39.599
29.9293
19.8003
25.3589
3.89619
3.13471
3.81111
3.78251
3.3712
2.92859
3.49628
11.0314
35.3178
50.0753
57.2419
62.6582
65.4538
66.8373
66.5253
65.8563
63.8629
60.0871
54.902
47.9981
39.591
29.9241
19.7973
25.354
3.89378
3.13007
3.80513
3.77536
3.3627
2.92313
3.49671
11.0927
35.3968
50.1406
57.3046
62.7234
65.5165
66.8975
66.582
65.9051
63.9045
60.1215
54.929
48.0184
39.6051
29.9316
19.8007
25.3584
3.89664
3.13501
3.81165
3.78307
3.37168
2.92928
3.49755
11.0401
35.3325
50.0899
57.2564
62.6732
65.4684
66.8517
66.5393
65.8695
63.875
60.0979
54.9113
48.0058
39.5963
29.9283
19.8001
25.3589
3.88782
8.41281
10.6977
15.4439
17.5721
18.5718
18.3288
17.9364
18.2622
19.8848
24.3001
112.543
25.3589
80.2027
125.36
158.167
183.247
205.991
225.871
250.153
278.412
308.419
345.933
408.665
3.89619
8.40819
10.6843
15.4228
17.5486
18.5463
18.3115
17.93
18.2617
19.8911
24.3104
112.557
25.3589
80.2038
125.365
158.176
183.26
206.006
225.889
250.172
278.435
308.445
345.959
408.697
3.89378
8.41066
10.6919
15.4414
17.5725
18.5761
18.3345
17.945
18.2711
19.8933
24.3092
112.577
25.354
80.1917
125.349
158.156
183.239
205.984
225.867
250.151
278.416
308.43
345.954
408.703
3.89664
8.40992
10.6868
15.4253
17.5507
18.5474
18.3123
17.9301
18.2621
19.8924
24.3138
112.579
25.3584
80.2051
125.373
158.194
183.285
206.039
225.928
250.219
278.489
308.507
346.032
408.794
)
;
    }
    stator
    {
        Cmu             0.09;
        kappa           0.41;
        E               9.8;
        type            epsilonWallFunction;
        value           nonuniform List<scalar> 
192
(
10.5755
11.4535
12.2273
12.5848
12.4195
11.7329
10.5623
8.88674
6.73219
4.21866
1.99566
0.483417
0.782239
1.04495
1.80869
2.70379
3.46811
4.19771
5.01237
5.97741
6.99097
7.94997
8.84324
9.70863
10.579
11.4583
12.2336
12.5926
12.4281
11.7418
10.571
8.89448
6.73869
4.22333
1.99809
0.484066
0.783201
1.04651
1.8125
2.70909
3.47437
4.20457
5.01985
5.98563
6.99963
7.9587
8.85178
9.71665
10.5858
11.4639
12.2369
12.5943
12.4287
11.7416
10.5704
8.89354
6.73753
4.22225
1.99747
0.483896
0.783177
1.04613
1.81048
2.70638
3.47131
4.20138
5.01629
5.98146
6.99522
7.95439
8.84761
9.7127
10.5825
11.4612
12.2351
12.5922
12.4267
11.7397
10.5684
8.89197
6.73628
4.22136
1.99703
0.483764
0.782293
1.04494
1.80815
2.70289
3.46705
4.19668
5.01136
5.97619
6.98936
7.94784
8.84015
9.70459
51.6394
29.4496
20.1064
14.3873
10.4606
7.59108
5.47232
3.91289
2.7167
1.76757
1.03947
0.782239
23.0049
2.85459
1.65567
1.54712
1.51215
1.44399
1.30638
1.12012
0.887518
0.62517
0.35907
0.483417
51.684
29.478
20.1272
14.403
10.4726
7.60022
5.47917
3.91795
2.72033
1.77
1.04092
0.783201
23.02
2.85679
1.65728
1.54874
1.51375
1.44559
1.30784
1.12141
0.888559
0.625933
0.359529
0.484066
51.6846
29.4786
20.1273
14.4027
10.4721
7.59956
5.47854
3.9174
2.71988
1.76967
1.04073
0.783177
23.0237
2.85694
1.65701
1.54839
1.5134
1.44522
1.30751
1.12113
0.888391
0.625766
0.359437
0.483896
51.647
29.4524
20.1075
14.3875
10.4605
7.59085
5.47211
3.91272
2.71663
1.76757
1.03952
0.782293
23.0082
2.85596
1.65692
1.54836
1.51335
1.44513
1.30739
1.12097
0.888185
0.625642
0.359339
0.483764
)
;
    }
    front
    {
        type            empty;
    }
    back
    {
        type            empty;
    }
}


// ************************************************************************* //
