/*--------------------------------*- C++ -*----------------------------------*\
| =========                 |                                                 |
| \\      /  F ield         | OpenFOAM: The Open Source CFD Toolbox           |
|  \\    /   O peration     | Version:  4.0                                   |
|   \\  /    A nd           | Web:      www.OpenFOAM.org                      |
|    \\/     M anipulation  |                                                 |
\*---------------------------------------------------------------------------*/
FoamFile
{
    version     2.0;
    format      ascii;
    class       volScalarField;
    location    "350";
    object      k;
}
// * * * * * * * * * * * * * * * * * * * * * * * * * * * * * * * * * * * * * //

dimensions      [0 2 -2 0 0 0 0];

internalField   nonuniform List<scalar> 
3072
(
0.0356639
0.0462075
0.0526351
0.0523724
0.0485091
0.0441674
0.0496781
0.106643
0.232134
0.293116
0.320476
0.340388
0.0641551
0.116367
0.117915
0.108902
0.089919
0.122718
0.201587
0.23482
0.32847
0.399308
0.476131
0.546266
0.080447
0.148615
0.194355
0.212878
0.207724
0.220658
0.2959
0.380072
0.483112
0.571407
0.652653
0.71962
0.109216
0.21024
0.235896
0.234547
0.248459
0.314885
0.413862
0.512896
0.607473
0.688724
0.759373
0.816736
0.125872
0.248283
0.274243
0.279946
0.327469
0.415663
0.516676
0.612547
0.697356
0.76924
0.83104
0.881655
0.137486
0.27394
0.310239
0.338223
0.406858
0.501584
0.599056
0.686937
0.762146
0.825958
0.880714
0.926219
0.142969
0.286766
0.338227
0.39626
0.484021
0.581942
0.674284
0.754412
0.821546
0.877866
0.925775
0.965934
0.147403
0.301156
0.379944
0.47569
0.583773
0.684593
0.770696
0.841119
0.897811
0.943938
0.982339
1.01439
0.15557
0.332628
0.468265
0.611173
0.73971
0.841021
0.916512
0.971627
1.01179
1.0416
1.0648
1.08342
0.171314
0.402544
0.645235
0.840348
0.981188
1.073
1.12819
1.15893
1.17407
1.17937
1.18007
1.17861
0.203275
0.549466
0.944551
1.18421
1.31053
1.37122
1.3918
1.38859
1.37046
1.34538
1.31826
1.29172
0.585022
0.951602
1.36995
1.56143
1.62999
1.64136
1.62696
1.59076
1.54492
1.49423
1.44323
1.39431
0.350473
0.355444
0.35434
0.351943
0.344815
0.331111
0.311803
0.285105
0.250795
0.208106
0.158002
0.124444
0.607678
0.654839
0.682516
0.689661
0.68247
0.667363
0.646575
0.617016
0.568372
0.46537
0.340779
0.288841
0.770727
0.803984
0.81853
0.819635
0.812304
0.801312
0.788048
0.770206
0.738511
0.669887
0.505584
0.415948
0.860092
0.890035
0.907136
0.914261
0.91511
0.91366
0.912099
0.910211
0.900472
0.860927
0.718533
0.51603
0.920724
0.948934
0.967125
0.97756
0.983729
0.989692
0.999038
1.01264
1.02148
1.00615
0.896143
0.601812
0.962447
0.989936
1.00959
1.02349
1.03508
1.04875
1.06881
1.09715
1.12879
1.14087
1.07701
0.684913
0.998703
1.02464
1.0447
1.06087
1.07651
1.09629
1.12541
1.16726
1.21858
1.257
1.23483
0.763881
1.04089
1.06255
1.08036
1.09616
1.11311
1.13612
1.17148
1.22488
1.29564
1.36068
1.37018
0.854911
1.09871
1.11162
1.12317
1.13491
1.14955
1.17196
1.20951
1.27109
1.36056
1.45454
1.48515
0.95728
1.17659
1.17542
1.17616
1.17996
1.18874
1.20673
1.24171
1.30643
1.41206
1.5401
1.60968
1.06595
1.2678
1.24818
1.23387
1.22689
1.23004
1.2418
1.27078
1.33126
1.44314
1.60911
1.75233
1.19422
1.35017
1.31355
1.28559
1.26779
1.26539
1.27347
1.29655
1.34861
1.45244
1.64084
1.89024
1.38231
0.0357133
0.0462695
0.0526721
0.0524073
0.0485424
0.0441753
0.0496402
0.106312
0.23184
0.292924
0.320311
0.340229
0.064133
0.116332
0.11789
0.108934
0.0899256
0.12255
0.201369
0.234489
0.328128
0.398963
0.475768
0.54589
0.0803835
0.148437
0.194125
0.212732
0.207701
0.220403
0.295502
0.37959
0.482663
0.570938
0.652193
0.719172
0.109119
0.21003
0.235699
0.234355
0.248145
0.314395
0.413348
0.512381
0.606984
0.688233
0.758889
0.816266
0.125763
0.248045
0.273949
0.279592
0.326995
0.415149
0.516158
0.612042
0.696866
0.768756
0.830556
0.881181
0.137365
0.273701
0.309918
0.337816
0.406403
0.501111
0.598588
0.686473
0.761692
0.825498
0.880252
0.925756
0.142883
0.286578
0.337958
0.395926
0.483665
0.581578
0.67391
0.754034
0.821158
0.877468
0.925363
0.965515
0.147371
0.301079
0.379801
0.475536
0.583609
0.684409
0.770486
0.840883
0.897547
0.943644
0.982019
1.01405
0.15557
0.332664
0.468335
0.611256
0.73979
0.841073
0.91652
0.971587
1.0117
1.04146
1.06461
1.0832
0.171352
0.40269
0.645449
0.840633
0.981493
1.07328
1.12842
1.1591
1.17418
1.1794
1.18006
1.17853
0.203332
0.54965
0.944834
1.18458
1.31096
1.37164
1.39217
1.38892
1.37073
1.34557
1.31839
1.29179
0.585043
0.951694
1.37013
1.5617
1.63034
1.64172
1.62734
1.59111
1.54525
1.4945
1.44345
1.39448
0.35033
0.35531
0.354217
0.35184
0.344729
0.331039
0.311746
0.285059
0.250761
0.208083
0.157986
0.124429
0.607322
0.654503
0.682221
0.689419
0.682261
0.667187
0.646429
0.616897
0.568275
0.465305
0.340741
0.288813
0.770308
0.803599
0.818191
0.819326
0.812044
0.801091
0.787862
0.770055
0.738389
0.669793
0.505528
0.415914
0.859646
0.889619
0.906756
0.913921
0.914812
0.913396
0.911871
0.910025
0.900321
0.860811
0.718456
0.515988
0.920265
0.9485
0.966722
0.977193
0.983399
0.989401
0.998787
1.01244
1.02131
1.00601
0.896055
0.601768
0.961995
0.9895
1.00918
1.02311
1.03474
1.04844
1.06854
1.09693
1.12861
1.14073
1.07691
0.684866
0.998283
1.02423
1.0443
1.0605
1.07617
1.09598
1.12514
1.16703
1.21839
1.25685
1.23474
0.763833
1.04053
1.06219
1.08001
1.09583
1.1128
1.13584
1.17123
1.22466
1.29546
1.36054
1.37008
0.854866
1.09846
1.11135
1.1229
1.13464
1.14929
1.17172
1.20929
1.27089
1.3604
1.45441
1.48507
0.957238
1.17647
1.17527
1.17599
1.17979
1.18856
1.20655
1.24154
1.30628
1.41193
1.54
1.60962
1.06592
1.26782
1.24815
1.23381
1.22681
1.22995
1.24171
1.27069
1.33117
1.44307
1.60907
1.7523
1.19421
1.35029
1.31362
1.28562
1.26779
1.26538
1.27345
1.29654
1.3486
1.45244
1.64085
1.89027
1.38233
0.0356989
0.0462257
0.0526198
0.0523441
0.0484628
0.0441179
0.0496446
0.106692
0.232189
0.293174
0.320542
0.340461
0.0641451
0.116342
0.117841
0.108761
0.0897909
0.122608
0.201591
0.234872
0.328568
0.39943
0.47628
0.546434
0.0804203
0.148561
0.194235
0.212685
0.207545
0.220725
0.296004
0.380217
0.483285
0.571605
0.652872
0.719857
0.109205
0.210187
0.235802
0.23445
0.248513
0.315046
0.414027
0.51309
0.607688
0.688961
0.759631
0.817012
0.125875
0.248271
0.274249
0.280002
0.327614
0.415843
0.516871
0.612762
0.69759
0.769498
0.831321
0.881956
0.137509
0.273979
0.310298
0.338345
0.407031
0.501784
0.59927
0.687169
0.762401
0.826237
0.881015
0.926542
0.143001
0.286837
0.338338
0.396435
0.484233
0.582176
0.674535
0.754681
0.821835
0.878176
0.926104
0.966281
0.147451
0.301252
0.380101
0.475915
0.584036
0.68488
0.771003
0.841441
0.898147
0.944287
0.9827
1.01476
0.155621
0.332745
0.468467
0.611422
0.740002
0.841347
0.916862
0.971994
1.01216
1.04198
1.06519
1.08381
0.171363
0.402664
0.645421
0.840592
0.981482
1.07334
1.12855
1.15931
1.17446
1.17977
1.18047
1.179
0.203324
0.549575
0.944721
1.18444
1.31081
1.37154
1.39215
1.38896
1.37084
1.34577
1.31865
1.2921
0.585115
0.951742
1.37011
1.56161
1.63021
1.64161
1.62726
1.59108
1.54526
1.49457
1.44358
1.39465
0.350551
0.355521
0.354415
0.35201
0.344876
0.331163
0.311846
0.285138
0.25082
0.208117
0.158003
0.124442
0.607858
0.655026
0.682704
0.689843
0.682643
0.66752
0.646714
0.617133
0.568461
0.465429
0.340798
0.288844
0.770976
0.804242
0.81879
0.819891
0.812546
0.801536
0.78825
0.770384
0.738663
0.670007
0.505645
0.415965
0.860383
0.890336
0.90744
0.914563
0.915403
0.913941
0.912361
0.910444
0.900675
0.861091
0.718646
0.516068
0.921042
0.949264
0.967464
0.977901
0.984066
0.990018
0.999347
1.01293
1.02174
1.00636
0.896289
0.601866
0.962788
0.99029
1.00995
1.02386
1.03545
1.04911
1.06916
1.09748
1.12909
1.14113
1.07719
0.684985
0.999065
1.02501
1.04508
1.06125
1.0769
1.09667
1.12578
1.16762
1.21891
1.25729
1.23505
0.763967
1.04127
1.06293
1.08075
1.09655
1.11351
1.13651
1.17188
1.22526
1.296
1.361
1.37042
0.855016
1.0991
1.11201
1.12356
1.1353
1.14994
1.17236
1.20991
1.27148
1.36095
1.45489
1.48542
0.957402
1.17697
1.1758
1.17654
1.18034
1.18912
1.20712
1.2421
1.30683
1.41246
1.54047
1.60997
1.06609
1.26817
1.24854
1.23423
1.22725
1.2304
1.24216
1.27116
1.33166
1.44356
1.60952
1.75264
1.19438
1.3505
1.31387
1.28591
1.26811
1.26572
1.2738
1.2969
1.34898
1.45286
1.64127
1.89058
1.38253
0.0357161
0.0462723
0.052677
0.0524123
0.0485468
0.0441817
0.0496521
0.106365
0.231906
0.29298
0.320365
0.340282
0.0641419
0.116347
0.117907
0.108949
0.0899473
0.122596
0.201421
0.234549
0.3282
0.399039
0.475853
0.545982
0.0803963
0.148462
0.194165
0.212785
0.207754
0.220452
0.29556
0.379663
0.482746
0.57103
0.652291
0.719271
0.109131
0.210064
0.235745
0.234404
0.248186
0.314437
0.413409
0.512456
0.607069
0.688325
0.758985
0.816364
0.125773
0.248077
0.273988
0.279628
0.327024
0.415194
0.516221
0.612118
0.69695
0.768844
0.830647
0.881274
0.13737
0.273725
0.309946
0.337836
0.406426
0.501151
0.598646
0.686542
0.761767
0.825577
0.880334
0.925841
0.142887
0.28659
0.337968
0.395927
0.483674
0.581603
0.673951
0.754086
0.821218
0.877532
0.925431
0.965587
0.147371
0.301084
0.3798
0.475529
0.583609
0.684422
0.77051
0.840916
0.897587
0.94369
0.982069
1.0141
0.155571
0.332671
0.468338
0.611268
0.739808
0.841095
0.916544
0.971615
1.01173
1.04149
1.06465
1.08324
0.171359
0.402717
0.645493
0.840687
0.981548
1.07333
1.12846
1.15914
1.17422
1.17943
1.18009
1.17856
0.203351
0.549722
0.944926
1.18468
1.31105
1.37172
1.39224
1.38898
1.37078
1.34562
1.31843
1.29182
0.585125
0.951842
1.37028
1.56184
1.63047
1.64186
1.62745
1.59121
1.54533
1.49457
1.44351
1.39453
0.350382
0.355361
0.354266
0.351886
0.344772
0.331078
0.311781
0.285089
0.250784
0.208102
0.158001
0.124444
0.607416
0.654598
0.682311
0.689501
0.682338
0.667259
0.646494
0.616957
0.568332
0.465346
0.340771
0.288839
0.770406
0.803694
0.818279
0.81941
0.81212
0.801161
0.787926
0.770112
0.73844
0.669838
0.50556
0.415937
0.859743
0.889713
0.906845
0.914003
0.914887
0.913464
0.911933
0.910078
0.900368
0.860851
0.718491
0.51601
0.920358
0.948591
0.966808
0.977273
0.983472
0.989466
0.998844
1.01248
1.02135
1.00605
0.896087
0.601785
0.962081
0.989584
1.00926
1.02319
1.03481
1.0485
1.0686
1.09697
1.12864
1.14076
1.07694
0.68488
0.998356
1.0243
1.04437
1.06056
1.07623
1.09604
1.12519
1.16708
1.21842
1.25688
1.23476
0.763842
1.04059
1.06225
1.08007
1.09588
1.11286
1.13589
1.17127
1.2247
1.29549
1.36056
1.37009
0.854869
1.0985
1.1114
1.12295
1.13468
1.14934
1.17176
1.20933
1.27092
1.36042
1.45442
1.48507
0.95723
1.1765
1.1753
1.17602
1.17982
1.1886
1.20659
1.24156
1.3063
1.41193
1.53999
1.6096
1.06589
1.26785
1.24818
1.23385
1.22684
1.22998
1.24173
1.2707
1.33117
1.44305
1.60902
1.75224
1.19416
1.35034
1.31367
1.28568
1.26784
1.26541
1.27348
1.29655
1.34858
1.45238
1.64076
1.89016
1.38224
1.70395
1.70492
1.7205
1.73636
1.74093
1.73191
1.70832
1.66832
1.61947
1.56316
1.50469
1.44644
1.7031
1.66257
1.64505
1.6405
1.63942
1.63393
1.62109
1.60041
1.5693
1.5249
1.47654
1.425
1.59343
1.56056
1.53108
1.50909
1.49084
1.47596
1.46221
1.44612
1.42773
1.40443
1.37611
1.34163
1.4491
1.42504
1.39551
1.36448
1.33568
1.31075
1.29037
1.27421
1.26201
1.25047
1.24029
1.23284
1.39256
1.3481
1.31434
1.29244
1.28843
1.29527
1.31503
1.35823
1.44165
1.60567
1.89645
1.8217
1.37629
1.33824
1.31097
1.2958
1.29604
1.30374
1.32261
1.35899
1.41916
1.52225
1.74942
1.7595
1.31131
1.29341
1.28262
1.2813
1.2854
1.29653
1.31387
1.33965
1.38156
1.43732
1.57567
1.61769
1.23172
1.23895
1.24181
1.24628
1.25203
1.26055
1.27435
1.29318
1.32442
1.3556
1.43176
1.46551
1.70401
1.70497
1.72057
1.73647
1.74113
1.73214
1.70859
1.66862
1.61977
1.56344
1.50494
1.44665
1.70317
1.66262
1.6451
1.64058
1.63954
1.63409
1.62127
1.60063
1.56954
1.52515
1.47677
1.42522
1.59352
1.56062
1.53115
1.50916
1.49094
1.47609
1.46237
1.44629
1.42791
1.40463
1.37631
1.34184
1.44918
1.42511
1.39559
1.36457
1.33579
1.31087
1.29052
1.27438
1.26219
1.25065
1.24049
1.23305
1.39273
1.34824
1.31444
1.29252
1.2885
1.29535
1.31511
1.35831
1.44173
1.60577
1.89653
1.82178
1.37648
1.33841
1.31112
1.29595
1.29619
1.30389
1.32277
1.35915
1.41933
1.52243
1.7496
1.75966
1.31152
1.29361
1.28282
1.28151
1.28561
1.29676
1.31411
1.3399
1.38181
1.43758
1.57593
1.61793
1.23195
1.2392
1.24207
1.24656
1.25232
1.26085
1.27467
1.2935
1.32474
1.35592
1.43207
1.46579
1.70412
1.70509
1.72068
1.73653
1.74113
1.73213
1.70856
1.6686
1.61977
1.56347
1.505
1.44674
1.70333
1.6628
1.64528
1.64072
1.63965
1.63417
1.62135
1.60068
1.56958
1.52519
1.47682
1.42528
1.59375
1.56085
1.53136
1.50936
1.49112
1.47624
1.46249
1.4464
1.42801
1.40471
1.37638
1.34189
1.44945
1.42536
1.39582
1.36478
1.33598
1.31105
1.29066
1.27449
1.26229
1.25074
1.24055
1.2331
1.39286
1.3484
1.31463
1.29273
1.28874
1.29559
1.31536
1.3586
1.44206
1.60612
1.89683
1.82203
1.37656
1.33851
1.31124
1.29609
1.29633
1.30405
1.32294
1.35934
1.41955
1.52268
1.74987
1.7599
1.31157
1.29367
1.28289
1.28158
1.2857
1.29685
1.3142
1.34002
1.38196
1.43775
1.57615
1.61816
1.23199
1.23923
1.24211
1.24659
1.25236
1.2609
1.27473
1.29358
1.32485
1.35605
1.43226
1.466
1.70425
1.70519
1.72079
1.73669
1.74134
1.73234
1.70878
1.66878
1.61991
1.56356
1.50504
1.44674
1.70354
1.66296
1.64542
1.64089
1.63984
1.63437
1.62154
1.60087
1.56975
1.52532
1.47693
1.42535
1.59397
1.56104
1.53154
1.50954
1.49129
1.47642
1.46268
1.44658
1.42819
1.40487
1.37653
1.34201
1.44966
1.42556
1.396
1.36495
1.33615
1.31121
1.29083
1.27466
1.26245
1.25089
1.24069
1.23321
1.39282
1.34832
1.31452
1.29258
1.28855
1.29537
1.3151
1.35826
1.44164
1.60564
1.89637
1.82163
1.37661
1.33852
1.31122
1.29602
1.29624
1.30391
1.32273
1.35907
1.41919
1.52225
1.74938
1.75945
1.31167
1.29374
1.28292
1.28157
1.28562
1.29671
1.31401
1.33976
1.38161
1.43734
1.57565
1.61767
1.23208
1.23928
1.24209
1.24653
1.25224
1.2607
1.27447
1.29326
1.32446
1.35561
1.43173
1.46548
1.28602
1.25294
1.21973
1.18865
1.16238
1.14148
1.12627
1.11663
1.11251
1.1133
1.12151
1.13913
1.15451
1.12304
1.09324
1.06629
1.04346
1.02502
1.01151
1.00321
1.00012
1.00147
1.00749
1.02218
1.05089
1.02583
1.00179
0.978974
0.95755
0.937684
0.920151
0.905495
0.893513
0.883279
0.875916
0.877664
0.966511
0.949132
0.930953
0.911116
0.888827
0.864013
0.837347
0.809276
0.779367
0.746122
0.712179
0.693938
1.15843
1.16859
1.16452
1.16766
1.17777
1.19458
1.21834
1.24584
1.27623
1.30362
1.32957
1.324
1.04245
1.05084
1.03988
1.04572
1.06445
1.09291
1.12756
1.1623
1.19011
1.20783
1.2153
1.19409
0.90165
0.923347
0.913944
0.92417
0.950974
0.987968
1.02967
1.06645
1.09155
1.10512
1.10573
1.08301
0.72335
0.791162
0.794448
0.810941
0.843826
0.88586
0.930813
0.968004
0.992218
1.005
1.00543
0.988568
1.28611
1.25304
1.21985
1.18879
1.16253
1.14164
1.12644
1.11681
1.1127
1.11352
1.12176
1.13942
1.15462
1.12316
1.09338
1.06645
1.04364
1.02521
1.0117
1.00341
1.00035
1.00172
1.00779
1.02251
1.05101
1.02596
1.00195
0.97916
0.957747
0.937888
0.92036
0.905714
0.89375
0.883542
0.876225
0.878014
0.966634
0.949276
0.93113
0.91132
0.889045
0.864236
0.837571
0.809504
0.779604
0.746374
0.712454
0.694251
1.15874
1.16892
1.16486
1.168
1.17813
1.19494
1.2187
1.24619
1.27657
1.30394
1.32988
1.32428
1.04281
1.05122
1.04026
1.0461
1.06484
1.09329
1.12794
1.16266
1.19045
1.20815
1.21561
1.19436
0.902037
0.923751
0.914352
0.924576
0.951375
0.988362
1.03005
1.06681
1.09189
1.10545
1.10603
1.08328
0.723712
0.791564
0.794856
0.811346
0.844226
0.886252
0.931194
0.968362
0.992554
1.00532
1.00572
0.988818
1.28637
1.25327
1.22005
1.18897
1.16268
1.14178
1.12656
1.1169
1.11277
1.11357
1.12178
1.13943
1.15486
1.12337
1.09356
1.0666
1.04377
1.02532
1.01179
1.00348
1.00039
1.00175
1.0078
1.02251
1.05124
1.02616
1.00211
0.979288
0.957855
0.937979
0.920434
0.90577
0.89379
0.883566
0.876231
0.87801
0.966847
0.949448
0.931266
0.911427
0.889134
0.864311
0.837635
0.809557
0.779648
0.746413
0.712485
0.69427
1.15875
1.16893
1.16488
1.16803
1.17817
1.195
1.21878
1.24629
1.2767
1.3041
1.33006
1.32447
1.04281
1.05123
1.04028
1.04613
1.06489
1.09336
1.12802
1.16277
1.19058
1.2083
1.21577
1.19453
0.902041
0.923761
0.914368
0.924603
0.951418
0.988421
1.03012
1.06691
1.092
1.10557
1.10617
1.08341
0.72372
0.791576
0.794865
0.811362
0.844255
0.886296
0.931252
0.968437
0.992644
1.00542
1.00583
0.988929
1.28655
1.25345
1.22021
1.18912
1.16283
1.14191
1.12668
1.11702
1.11287
1.11366
1.12183
1.13942
1.15502
1.12352
1.0937
1.06673
1.04388
1.02541
1.01187
1.00354
1.00042
1.00175
1.00772
1.02238
1.05137
1.02628
1.00222
0.979384
0.957931
0.938031
0.920459
0.905764
0.893745
0.883478
0.876076
0.877808
0.96695
0.949543
0.931349
0.911491
0.889172
0.86432
0.83761
0.809494
0.779543
0.746259
0.712283
0.694027
1.15868
1.16882
1.1647
1.16781
1.17788
1.19465
1.21838
1.24585
1.27621
1.30358
1.32952
1.32396
1.04263
1.051
1.03999
1.0458
1.06451
1.09293
1.12756
1.16227
1.19006
1.20777
1.21524
1.19404
0.901775
0.923457
0.914016
0.924218
0.950995
0.987965
1.02964
1.0664
1.09149
1.10506
1.10567
1.08296
0.723434
0.79123
0.794487
0.81096
0.843826
0.885841
0.930778
0.967952
0.992156
1.00494
1.00536
0.988509
0.893199
0.883187
0.870278
0.852434
0.827884
0.795945
0.7565
0.708992
0.650619
0.572058
0.444912
0.261868
0.825036
0.821467
0.813158
0.796827
0.769766
0.730364
0.677283
0.6088
0.520483
0.40109
0.218632
0.0666112
0.758526
0.760251
0.756024
0.741217
0.712451
0.667189
0.603171
0.518702
0.411668
0.281573
0.136119
0.047366
0.69245
0.698154
0.697419
0.684475
0.6555
0.607363
0.537592
0.446003
0.335553
0.218298
0.117176
0.0462605
0.626543
0.635169
0.637159
0.626541
0.599049
0.551427
0.481529
0.391273
0.288195
0.189373
0.113514
0.046525
0.561125
0.571739
0.575855
0.567795
0.543234
0.499092
0.433587
0.350324
0.259091
0.17593
0.112598
0.0460439
0.496549
0.508388
0.514143
0.508608
0.487925
0.449418
0.391166
0.317678
0.2389
0.167789
0.111119
0.0439257
0.432996
0.4454
0.452304
0.448968
0.432611
0.400988
0.351422
0.28849
0.22124
0.159523
0.106727
0.0404107
0.369952
0.38226
0.389792
0.388322
0.376008
0.351413
0.31143
0.258772
0.201759
0.147785
0.0976018
0.0352518
0.304907
0.316426
0.324098
0.324039
0.31515
0.296845
0.266951
0.224386
0.176512
0.129484
0.0818529
0.0284172
0.22894
0.238703
0.245762
0.246658
0.240827
0.227614
0.207617
0.177947
0.138719
0.0992289
0.0560975
0.0199849
0.102594
0.108202
0.113035
0.11524
0.114237
0.109992
0.102554
0.0914013
0.0759582
0.0556252
0.0337743
0.0131253
0.449525
0.652026
0.681035
0.706587
0.743814
0.78835
0.834206
0.87163
0.896456
0.910385
0.913821
0.905373
0.316499
0.528239
0.576848
0.61104
0.651065
0.696369
0.741778
0.779389
0.805545
0.821504
0.828994
0.828679
0.250996
0.431197
0.485584
0.524582
0.565817
0.610563
0.654658
0.692128
0.719601
0.737913
0.749388
0.755374
0.205214
0.353977
0.407064
0.447298
0.488227
0.531343
0.573468
0.610219
0.638456
0.658997
0.673701
0.684372
0.169454
0.29092
0.339754
0.378846
0.418213
0.458856
0.498486
0.533847
0.562185
0.584102
0.601251
0.615175
0.139656
0.237864
0.281741
0.318488
0.355411
0.392972
0.429672
0.46304
0.490816
0.51324
0.531755
0.547642
0.114522
0.191588
0.231211
0.265236
0.299211
0.333271
0.366682
0.397624
0.424218
0.446366
0.465256
0.481964
0.0933465
0.150147
0.18655
0.217957
0.248727
0.279011
0.308856
0.337052
0.361942
0.383156
0.401594
0.418191
0.0745679
0.113061
0.146392
0.175356
0.202677
0.228947
0.254981
0.280155
0.30291
0.322637
0.339936
0.355664
0.0570148
0.0802053
0.109522
0.135547
0.158745
0.180569
0.20244
0.224283
0.244523
0.262243
0.277748
0.29189
0.0407339
0.0517295
0.0739206
0.094336
0.111513
0.127655
0.144414
0.162184
0.179199
0.194031
0.206686
0.218216
0.018146
0.0220049
0.031705
0.04145
0.0489249
0.0555471
0.0624818
0.0702161
0.0779081
0.0848512
0.0910747
0.096912
0.893322
0.883335
0.870464
0.852651
0.828119
0.796184
0.756735
0.709222
0.650839
0.572264
0.445085
0.26198
0.825158
0.821614
0.813348
0.797052
0.770012
0.730614
0.677526
0.609025
0.520679
0.401242
0.218712
0.0666453
0.758647
0.760394
0.756212
0.741444
0.712702
0.667446
0.603417
0.51892
0.411843
0.281692
0.136181
0.0473969
0.692567
0.698292
0.697602
0.684698
0.655748
0.607618
0.537834
0.446212
0.335713
0.218405
0.117242
0.0462928
0.626658
0.635303
0.637332
0.626754
0.599288
0.551674
0.481763
0.391472
0.288345
0.189476
0.113585
0.0465579
0.561235
0.571867
0.576018
0.567994
0.543459
0.499325
0.433809
0.350512
0.259235
0.176031
0.112672
0.0460779
0.496654
0.508508
0.514294
0.508791
0.48813
0.449633
0.391373
0.317854
0.239037
0.16789
0.111196
0.0439587
0.433094
0.44551
0.452443
0.449132
0.432796
0.401182
0.351611
0.288653
0.221371
0.159622
0.106802
0.0404416
0.37004
0.382358
0.389919
0.388467
0.37617
0.351584
0.311601
0.258921
0.201881
0.14788
0.0976719
0.0352789
0.304981
0.316511
0.324208
0.324165
0.315289
0.29699
0.267098
0.224517
0.176622
0.12957
0.0819119
0.0284395
0.228994
0.238769
0.245849
0.246759
0.240937
0.227728
0.20773
0.178053
0.138811
0.0992986
0.0561387
0.0200012
0.102617
0.108232
0.113074
0.115288
0.114289
0.110048
0.102609
0.0914542
0.0760068
0.0556661
0.0338008
0.0131367
0.449781
0.652402
0.681427
0.706982
0.744205
0.788734
0.834579
0.871981
0.896784
0.910695
0.914103
0.905613
0.316699
0.528579
0.577216
0.611417
0.651442
0.69674
0.742141
0.779732
0.805865
0.821803
0.829265
0.828907
0.251166
0.431502
0.485928
0.52494
0.566178
0.610921
0.655009
0.692462
0.719913
0.738198
0.749644
0.755592
0.205361
0.35425
0.407381
0.447633
0.488569
0.531684
0.573805
0.610541
0.638758
0.659273
0.673943
0.684578
0.169582
0.291163
0.340043
0.379157
0.418533
0.459179
0.498805
0.534157
0.562476
0.584367
0.601485
0.615371
0.139766
0.238079
0.282001
0.318774
0.355709
0.393273
0.429972
0.463333
0.491093
0.513494
0.531979
0.54783
0.114615
0.191774
0.231443
0.265495
0.299483
0.333549
0.366961
0.397898
0.424478
0.446607
0.46547
0.482145
0.0934254
0.150303
0.186752
0.218187
0.248972
0.279263
0.30911
0.337304
0.362183
0.383381
0.401795
0.418363
0.0746331
0.113186
0.146563
0.175555
0.202891
0.229168
0.255205
0.280379
0.303127
0.322841
0.34012
0.355825
0.0570659
0.0802996
0.10966
0.135711
0.158922
0.180754
0.202628
0.224474
0.244709
0.262419
0.27791
0.292034
0.0407711
0.0517917
0.074022
0.0944565
0.111644
0.127791
0.144555
0.162329
0.179343
0.194169
0.206814
0.218332
0.0181606
0.0220263
0.0317487
0.0415034
0.0489829
0.0556068
0.0625432
0.0702797
0.0779717
0.0849126
0.0911326
0.0969647
0.89352
0.883491
0.870581
0.852739
0.828189
0.796245
0.756791
0.709274
0.650892
0.572319
0.445141
0.262007
0.825343
0.821756
0.813449
0.797123
0.770066
0.730661
0.677573
0.609073
0.520733
0.4013
0.218758
0.0666474
0.758822
0.760527
0.7563
0.741501
0.712741
0.667478
0.603451
0.518959
0.411887
0.281733
0.136197
0.0473918
0.692733
0.698417
0.697681
0.684744
0.655775
0.607638
0.537855
0.446237
0.335742
0.218424
0.117242
0.046286
0.626815
0.63542
0.637407
0.626793
0.599307
0.551684
0.481773
0.391484
0.288358
0.18948
0.113576
0.0465509
0.561385
0.571979
0.57609
0.56803
0.543473
0.499327
0.433809
0.350514
0.259235
0.176027
0.112659
0.0460704
0.496799
0.508616
0.514364
0.508826
0.488145
0.449632
0.391367
0.317848
0.239029
0.167881
0.11118
0.0439515
0.433234
0.445615
0.452512
0.449168
0.432812
0.401181
0.351602
0.288643
0.221357
0.15961
0.106785
0.0404353
0.370173
0.382457
0.389985
0.388501
0.37619
0.351584
0.31159
0.25891
0.201862
0.14787
0.0976546
0.0352747
0.305101
0.316601
0.324267
0.324196
0.315308
0.296993
0.267089
0.224506
0.176605
0.129559
0.081901
0.0284347
0.229092
0.238843
0.245896
0.246783
0.240951
0.227731
0.207726
0.178043
0.138797
0.0992889
0.056132
0.0199982
0.10266
0.108266
0.113094
0.115298
0.114293
0.110047
0.102606
0.091448
0.0759985
0.0556572
0.0337944
0.0131339
0.449788
0.652407
0.681425
0.706982
0.744215
0.788756
0.834615
0.872031
0.896846
0.910766
0.914181
0.905695
0.316706
0.52857
0.577197
0.611398
0.65143
0.696739
0.742151
0.779754
0.805898
0.821845
0.829316
0.828963
0.25117
0.43148
0.485891
0.5249
0.566142
0.610894
0.654992
0.692456
0.719918
0.738213
0.749668
0.755623
0.205361
0.354216
0.407328
0.447575
0.488512
0.531634
0.573762
0.610508
0.638736
0.659262
0.673943
0.684587
0.169578
0.291121
0.339978
0.379083
0.418459
0.459108
0.49874
0.5341
0.56243
0.584333
0.601462
0.615359
0.13976
0.238032
0.281929
0.318688
0.355621
0.393186
0.429889
0.463256
0.491027
0.51344
0.531937
0.547799
0.114608
0.191725
0.231367
0.265404
0.299386
0.333452
0.366865
0.397807
0.424396
0.446536
0.465411
0.482099
0.093418
0.150256
0.186676
0.218094
0.248872
0.279161
0.309008
0.337204
0.362091
0.383298
0.401724
0.418304
0.0746259
0.113143
0.146491
0.175466
0.202794
0.22907
0.255104
0.280278
0.303032
0.322753
0.340044
0.355758
0.0570597
0.0802646
0.109596
0.135631
0.158837
0.180666
0.202537
0.22438
0.244618
0.262335
0.277834
0.291965
0.0407666
0.0517689
0.0739695
0.0943952
0.111579
0.127725
0.144485
0.162253
0.179267
0.194098
0.206749
0.218272
0.0181604
0.0220214
0.031726
0.0414768
0.0489553
0.0555799
0.0625149
0.0702484
0.0779402
0.0848831
0.0911052
0.0969395
0.893599
0.883562
0.870639
0.852775
0.828197
0.796219
0.756728
0.709173
0.650753
0.572149
0.444959
0.261888
0.825399
0.821805
0.813485
0.797137
0.770051
0.730612
0.677488
0.608957
0.520595
0.401163
0.218673
0.0666319
0.758855
0.760557
0.756318
0.741497
0.712711
0.667417
0.603359
0.518848
0.411773
0.281647
0.13617
0.0473899
0.692747
0.69843
0.697684
0.684728
0.655736
0.607573
0.537768
0.446142
0.335658
0.218376
0.117231
0.0462854
0.62681
0.635416
0.637396
0.626768
0.599263
0.551621
0.481695
0.391408
0.288299
0.189451
0.113569
0.0465499
0.561364
0.571961
0.576068
0.567998
0.543427
0.499269
0.433742
0.350453
0.259193
0.176006
0.112653
0.0460682
0.496763
0.508587
0.514333
0.508789
0.488097
0.449579
0.391309
0.317798
0.238996
0.167862
0.111174
0.0439485
0.433186
0.445576
0.452474
0.449127
0.432765
0.401132
0.351552
0.288601
0.22133
0.159592
0.106778
0.0404313
0.370117
0.382413
0.389942
0.388462
0.376143
0.35154
0.311547
0.258873
0.201842
0.147849
0.0976488
0.0352696
0.305043
0.316554
0.324226
0.324159
0.315265
0.296954
0.267052
0.224474
0.176584
0.12954
0.0818921
0.0284315
0.22904
0.238802
0.245862
0.246752
0.240917
0.2277
0.207697
0.178017
0.138777
0.0992719
0.0561245
0.0199949
0.10264
0.10825
0.113083
0.115286
0.114281
0.110035
0.102593
0.0914373
0.0759891
0.0556491
0.0337899
0.0131316
0.449572
0.652059
0.681049
0.706587
0.7438
0.788322
0.834165
0.871576
0.896394
0.910319
0.913753
0.905315
0.316521
0.528248
0.576844
0.611026
0.651043
0.696336
0.741735
0.779336
0.805485
0.821439
0.828928
0.828622
0.251006
0.431191
0.485568
0.52456
0.565789
0.610528
0.654615
0.692077
0.719544
0.73785
0.749323
0.755318
0.205217
0.353962
0.407041
0.44727
0.488196
0.531307
0.573426
0.61017
0.638401
0.658936
0.673635
0.684312
0.169454
0.290901
0.339726
0.378813
0.418179
0.45882
0.498444
0.5338
0.562132
0.584043
0.601186
0.61511
0.139654
0.237844
0.281711
0.318453
0.355376
0.392935
0.429631
0.462993
0.490765
0.513182
0.531689
0.547572
0.114519
0.191569
0.231182
0.265201
0.299175
0.333234
0.366642
0.397579
0.424168
0.446309
0.46519
0.481892
0.0933443
0.150131
0.186523
0.217923
0.248692
0.278976
0.308818
0.33701
0.361895
0.383101
0.401528
0.418118
0.074567
0.113048
0.146368
0.175325
0.202644
0.228914
0.254946
0.280116
0.302866
0.322585
0.339873
0.355593
0.0570151
0.0801971
0.109503
0.135521
0.158716
0.18054
0.20241
0.22425
0.244484
0.262197
0.277691
0.291825
0.0407356
0.051726
0.0739068
0.0943162
0.111492
0.127634
0.144393
0.16216
0.17917
0.193995
0.20664
0.218164
0.018147
0.0220049
0.0316991
0.0414413
0.0489155
0.0555386
0.062474
0.0702072
0.0778968
0.0848364
0.0910539
0.0968858
)
;

boundaryField
{
    rotor
    {
        type            kqRWallFunction;
        value           nonuniform List<scalar> 
192
(
0.0356639
0.0462075
0.0526351
0.0523724
0.0485091
0.0441674
0.0496781
0.106643
0.232134
0.293116
0.320476
0.340388
0.350473
0.355444
0.35434
0.351943
0.344815
0.331111
0.311803
0.285105
0.250795
0.208106
0.158002
0.124444
0.0357133
0.0462695
0.0526721
0.0524073
0.0485424
0.0441753
0.0496402
0.106312
0.23184
0.292924
0.320311
0.340229
0.35033
0.35531
0.354217
0.35184
0.344729
0.331039
0.311746
0.285059
0.250761
0.208083
0.157986
0.124429
0.0356989
0.0462257
0.0526198
0.0523441
0.0484628
0.0441179
0.0496446
0.106692
0.232189
0.293174
0.320542
0.340461
0.350551
0.355521
0.354415
0.35201
0.344876
0.331163
0.311846
0.285138
0.25082
0.208117
0.158003
0.124442
0.0357161
0.0462723
0.052677
0.0524123
0.0485468
0.0441817
0.0496521
0.106365
0.231906
0.29298
0.320365
0.340282
0.350382
0.355361
0.354266
0.351886
0.344772
0.331078
0.311781
0.285089
0.250784
0.208102
0.158001
0.124444
0.0356639
0.0641551
0.080447
0.109216
0.125872
0.137486
0.142969
0.147403
0.15557
0.171314
0.203275
0.585022
0.124444
0.288839
0.415937
0.51601
0.601785
0.68488
0.763842
0.854869
0.95723
1.06589
1.19416
1.38224
0.0357133
0.064133
0.0803835
0.109119
0.125763
0.137365
0.142883
0.147371
0.15557
0.171352
0.203332
0.585043
0.124444
0.288841
0.415948
0.51603
0.601812
0.684913
0.763881
0.854911
0.95728
1.06595
1.19422
1.38231
0.0356989
0.0641451
0.0804203
0.109205
0.125875
0.137509
0.143001
0.147451
0.155621
0.171363
0.203324
0.585115
0.124429
0.288813
0.415914
0.515988
0.601768
0.684866
0.763833
0.854866
0.957238
1.06592
1.19421
1.38233
0.0357161
0.0641419
0.0803963
0.109131
0.125773
0.13737
0.142887
0.147371
0.155571
0.171359
0.203351
0.585125
0.124442
0.288844
0.415965
0.516068
0.601866
0.684985
0.763967
0.855016
0.957402
1.06609
1.19438
1.38253
)
;
    }
    stator
    {
        type            kqRWallFunction;
        value           nonuniform List<scalar> 
192
(
0.102594
0.108202
0.113035
0.11524
0.114237
0.109992
0.102554
0.0914013
0.0759582
0.0556252
0.0337743
0.0131253
0.018146
0.0220049
0.031705
0.04145
0.0489249
0.0555471
0.0624818
0.0702161
0.0779081
0.0848512
0.0910747
0.096912
0.102617
0.108232
0.113074
0.115288
0.114289
0.110048
0.102609
0.0914542
0.0760068
0.0556661
0.0338008
0.0131367
0.0181606
0.0220263
0.0317487
0.0415034
0.0489829
0.0556068
0.0625432
0.0702797
0.0779717
0.0849126
0.0911326
0.0969647
0.10266
0.108266
0.113094
0.115298
0.114293
0.110047
0.102606
0.091448
0.0759985
0.0556572
0.0337944
0.0131339
0.0181604
0.0220214
0.031726
0.0414768
0.0489553
0.0555799
0.0625149
0.0702484
0.0779402
0.0848831
0.0911052
0.0969395
0.10264
0.10825
0.113083
0.115286