/*--------------------------------*- C++ -*----------------------------------*\
| =========                 |                                                 |
| \\      /  F ield         | OpenFOAM: The Open Source CFD Toolbox           |
|  \\    /   O peration     | Version:  4.0                                   |
|   \\  /    A nd           | Web:      www.OpenFOAM.org                      |
|    \\/     M anipulation  |                                                 |
\*---------------------------------------------------------------------------*/
FoamFile
{
    version     2.0;
    format      ascii;
    class       volScalarField;
    location    "350";
    object      nut;
}
// * * * * * * * * * * * * * * * * * * * * * * * * * * * * * * * * * * * * * //

dimensions      [0 2 -1 0 0 0 0];

internalField   nonuniform List<scalar> 
3072
(
2.94438e-05
6.14193e-05
6.54896e-05
6.53237e-05
6.2879e-05
5.99513e-05
6.34499e-05
9.23328e-05
0.000137059
0.000154263
0.000161354
0.000166305
4.40315e-05
0.000167095
0.000205213
0.000183166
0.000103287
8.46497e-05
0.000146552
0.00017959
0.000267832
0.00036095
0.000499332
0.000645972
5.44468e-05
0.000226889
0.000273983
0.00023603
0.000201609
0.000215104
0.000325187
0.000466427
0.000665309
0.000897227
0.00112514
0.00133374
6.95118e-05
0.000315715
0.000316388
0.000288877
0.000306454
0.000435896
0.000634753
0.00086648
0.00113608
0.00140784
0.00165253
0.00186578
8.11474e-05
0.000383956
0.000417496
0.000420338
0.000525519
0.000731711
0.000973495
0.0012451
0.00153111
0.00180329
0.00204529
0.00225475
9.16026e-05
0.000463131
0.00054559
0.000609994
0.000779616
0.00101527
0.00127888
0.00155336
0.00182562
0.00208394
0.00231609
0.00251775
0.000100368
0.000534568
0.000685095
0.000819731
0.00103863
0.00129033
0.00155133
0.00181452
0.00206726
0.00230127
0.00250989
0.0026919
0.000109023
0.000625389
0.000851232
0.00108017
0.00133044
0.00158051
0.00182228
0.00205354
0.00226804
0.00246279
0.00263648
0.00278853
0.000119273
0.000728614
0.00108281
0.00137393
0.00162669
0.00185106
0.00205239
0.00223473
0.00239816
0.00254569
0.0026797
0.00280046
0.000132834
0.00083177
0.00127439
0.00158001
0.00181507
0.00200417
0.00216501
0.00230633
0.00243389
0.0025479
0.00265342
0.002751
0.000153039
0.000782172
0.00134537
0.0016738
0.00189993
0.00207732
0.00222149
0.00234352
0.0024446
0.00253364
0.00261474
0.00269006
0.000273697
0.00075387
0.00141418
0.00178553
0.00199152
0.002155
0.00229215
0.00239175
0.00247198
0.00253868
0.00259698
0.00264993
0.00016879
0.000170027
0.000169772
0.000169198
0.000167495
0.000164159
0.000159329
0.000152378
0.000142953
0.000130232
0.000113474
5.4962e-05
0.000792201
0.000915652
0.000994921
0.00101668
0.0009893
0.000924842
0.000825399
0.000691186
0.000531476
0.000322669
0.000161074
9.36195e-05
0.00150783
0.00162891
0.00168765
0.00169288
0.00164232
0.00153993
0.00138669
0.00118182
0.000923942
0.000617832
0.000272309
0.000124207
0.00203977
0.0021662
0.00223841
0.0022595
0.00222549
0.00213182
0.00196898
0.00172983
0.00140835
0.000998029
0.000487444
0.000151514
0.00242729
0.00255856
0.00264467
0.00268418
0.00267261
0.00260283
0.0024616
0.0022281
0.00186599
0.00136432
0.000713506
0.000177868
0.00268633
0.00281974
0.00291631
0.00297416
0.00299016
0.00295686
0.00285657
0.00265886
0.00231582
0.00176476
0.0009974
0.000204943
0.00284644
0.00297263
0.00307012
0.00313943
0.00318101
0.00318986
0.00314778
0.00301304
0.00271497
0.00215788
0.00129136
0.000232487
0.00291964
0.00303019
0.00312064
0.00319371
0.00325248
0.00329721
0.00331568
0.0032661
0.00305517
0.00252879
0.00158099
0.000262933
0.00290834
0.00300445
0.0030898
0.00316394
0.00322998
0.003299
0.00336758
0.0034064
0.00331597
0.00287441
0.00183889
0.000296208
0.00284108
0.00292585
0.00300721
0.00308539
0.00315754
0.00322947
0.00332689
0.00343844
0.00348329
0.00319214
0.002138
0.000331541
0.00276145
0.00283135
0.00290215
0.00297928
0.00307021
0.00314406
0.00324043
0.0033849
0.00353361
0.00344782
0.00249582
0.000371008
0.00270122
0.00275511
0.00281451
0.00288202
0.00297953
0.00306948
0.0031562
0.00330414
0.00350766
0.00360652
0.00290752
0.000420778
2.94621e-05
6.1466e-05
6.55166e-05
6.535e-05
6.29072e-05
5.99712e-05
6.34313e-05
9.22088e-05
0.000136971
0.000154215
0.000161314
0.000166267
4.40254e-05
0.000167092
0.000205317
0.000183416
0.000103473
8.46119e-05
0.000146358
0.000179269
0.000267482
0.00036055
0.00049886
0.000645449
5.44291e-05
0.000226748
0.000274002
0.00023603
0.000201599
0.000214742
0.00032461
0.000465673
0.000664562
0.00089638
0.00112429
0.00133288
6.94835e-05
0.00031556
0.000316238
0.00028868
0.000305849
0.000434938
0.000633808
0.000865492
0.00113506
0.00140683
0.00165157
0.00186482
8.11159e-05
0.000383717
0.000416978
0.000419603
0.000524444
0.000730716
0.000972423
0.00124393
0.00152996
0.0018022
0.00204424
0.00225373
9.1566e-05
0.000462815
0.00054493
0.000609041
0.000778632
0.00101422
0.00127777
0.00155221
0.00182448
0.0020828
0.00231499
0.00251668
0.000100342
0.000534297
0.000684502
0.000818958
0.00103782
0.00128946
0.00155037
0.00181351
0.0020662
0.00230025
0.00250888
0.0026909
0.000109015
0.000625325
0.000851015
0.00107988
0.00133002
0.00157997
0.00182162
0.00205277
0.0022672
0.00246192
0.00263559
0.00278761
0.000119276
0.000728834
0.00108306
0.00137401
0.00162659
0.00185081
0.00205202
0.00223425
0.00239757
0.00254501
0.00267897
0.00279969
0.000132851
0.000832071
0.0012746
0.00158014
0.00181507
0.00200409
0.00216485
0.0023061
0.00243361
0.00254747
0.00265297
0.00275047
0.000153061
0.000782369
0.00134552
0.00167397
0.00190016
0.00207752
0.00222163
0.00234363
0.00244464
0.00253358
0.0026146
0.00268984
0.000273681
0.000753907
0.00141433
0.00178574
0.00199184
0.00215531
0.00229249
0.00239206
0.00247225
0.00253889
0.00259712
0.00264999
0.000168757
0.000169996
0.000169744
0.000169175
0.000167475
0.000164142
0.000159315
0.000152366
0.000142945
0.000130225
0.000113468
5.49587e-05
0.0007917
0.000915162
0.000994475
0.00101632
0.000988986
0.000924583
0.000825199
0.000691047
0.000531384
0.000322624
0.00016106
9.36152e-05
0.00150701
0.00162817
0.001687
0.00169227
0.00164179
0.00153949
0.00138635
0.00118157
0.000923775
0.00061774
0.000272282
0.000124202
0.00203884
0.00216528
0.00223757
0.00225874
0.00222482
0.00213122
0.00196848
0.00172947
0.00140811
0.000997887
0.000487391
0.000151508
0.00242628
0.00255757
0.00264374
0.00268332
0.00267184
0.00260216
0.00246105
0.00222767
0.00186566
0.00136413
0.000713436
0.000177862
0.00268528
0.00281872
0.00291534
0.00297326
0.00298934
0.00295613
0.00285595
0.00265836
0.00231546
0.00176454
0.000997313
0.000204937
0.00284544
0.00297165
0.00306917
0.00313852
0.00318018
0.00318911
0.00314714
0.00301252
0.00271458
0.00215764
0.00129127
0.000232481
0.00291872
0.00302926
0.00311973
0.00319285
0.00325167
0.00329648
0.00331505
0.00326558
0.00305478
0.00252854
0.00158089
0.000262927
0.00290754
0.00300363
0.00308898
0.00316315
0.00322924
0.00329833
0.00336698
0.00340591
0.00331561
0.00287418
0.00183881
0.000296203
0.0028405
0.00292521
0.00300656
0.00308477
0.00315694
0.0032289
0.00332639
0.00343803
0.00348299
0.00319197
0.00213794
0.000331537
0.00276116
0.00283098
0.00290174
0.00297885
0.00306982
0.0031437
0.00324009
0.00338461
0.00353346
0.00344778
0.0024958
0.000371008
0.0027012
0.00275503
0.00281438
0.00288186
0.00297937
0.00306937
0.0031561
0.0033041
0.00350766
0.00360659
0.0029076
0.000420781
2.94564e-05
6.14407e-05
6.54896e-05
6.53159e-05
6.28595e-05
5.99274e-05
6.34348e-05
9.23569e-05
0.000137076
0.000154278
0.00016137
0.000166322
4.4029e-05
0.000167109
0.000205126
0.000182932
0.000103107
8.4562e-05
0.000146575
0.000179647
0.000267931
0.000361079
0.000499506
0.000646186
5.44402e-05
0.00022684
0.000273791
0.000235765
0.00020141
0.000215259
0.000325372
0.000466662
0.000665599
0.000897577
0.00112554
0.0013342
6.95094e-05
0.000315653
0.000316298
0.000288811
0.00030666
0.000436295
0.000635114
0.000866884
0.00113653
0.00140834
0.00165309
0.0018664
8.11497e-05
0.000384007
0.000417649
0.000420614
0.000525987
0.000732128
0.000973955
0.00124562
0.00153168
0.00180391
0.00204598
0.0022555
9.1612e-05
0.000463316
0.00054593
0.000610497
0.000780123
0.00101581
0.00127946
0.00155397
0.00182629
0.00208467
0.00231688
0.0025186
0.000100381
0.000534822
0.000685577
0.000820406
0.0010393
0.00129102
0.00155205
0.00181528
0.00206805
0.0023021
0.00251077
0.00269283
0.000109042
0.000625687
0.000851857
0.00108096
0.00133126
0.00158134
0.00182313
0.0020544
0.00226891
0.00246368
0.00263741
0.00278949
0.000119293
0.000728942
0.00108346
0.00137462
0.00162742
0.00185182
0.00205318
0.00223554
0.00239898
0.00254654
0.00268059
0.0028014
0.000132853
0.000832017
0.00127477
0.00158046
0.00181558
0.00200475
0.00216566
0.00230703
0.00243463
0.00254871
0.00265428
0.0027519
0.000153056
0.000782284
0.00134559
0.00167412
0.00190036
0.00207783
0.00222209
0.00234417
0.00244531
0.00253441
0.00261555
0.00269092
0.000273701
0.000753971
0.00141437
0.00178583
0.00199193
0.00215548
0.00229273
0.00239239
0.00247268
0.00253942
0.00259777
0.00265075
0.000168808
0.000170044
0.000169789
0.000169213
0.000167509
0.000164171
0.000159339
0.000152386
0.00014296
0.000130234
0.000113474
5.49612e-05
0.000792449
0.000915936
0.000995244
0.00101701
0.000989624
0.000925143
0.000825663
0.000691382
0.000531602
0.000322729
0.000161089
9.36195e-05
0.00150834
0.00162946
0.00168822
0.00169346
0.00164287
0.00154043
0.00138711
0.00118215
0.000924179
0.000617975
0.00027235
0.000124209
0.00204045
0.00216692
0.00223916
0.00226025
0.00222621
0.00213249
0.00196958
0.00173031
0.00140871
0.000998252
0.000487532
0.000151519
0.0024281
0.00255942
0.00264556
0.00268508
0.00267349
0.00260366
0.00246235
0.00222871
0.00186646
0.00136462
0.000713627
0.000177875
0.00268724
0.0028207
0.00291731
0.00297519
0.00299118
0.00295785
0.00285748
0.00265963
0.00231641
0.00176515
0.000997568
0.000204953
0.00284742
0.00297367
0.0030712
0.00314054
0.00318213
0.00319097
0.00314883
0.00301397
0.0027157
0.00215836
0.00129157
0.0002325
0.00292065
0.00303125
0.00312175
0.00319487
0.00325367
0.0032984
0.00331685
0.00326717
0.00305604
0.00252936
0.00158122
0.000262949
0.00290933
0.0030055
0.00309091
0.0031651
0.00323119
0.00330024
0.00336883
0.0034076
0.00331699
0.0028751
0.00183917
0.000296226
0.00284203
0.00292686
0.00300827
0.00308652
0.00315873
0.0032307
0.00332817
0.00343973
0.00348446
0.00319296
0.00213831
0.000331562
0.00276236
0.0028323
0.00290315
0.00298034
0.00307133
0.00314525
0.00324168
0.00338623
0.00353491
0.00344882
0.00249618
0.000371033
0.00270207
0.002756
0.00281545
0.00288302
0.0029806
0.00307059
0.00315738
0.00330543
0.00350905
0.00360771
0.002908
0.00042081
2.94633e-05
6.14677e-05
6.55195e-05
6.5353e-05
6.29098e-05
5.99746e-05
6.34385e-05
9.22291e-05
0.00013699
0.00015423
0.000161327
0.00016628
4.40286e-05
0.000167099
0.000205328
0.000183419
0.000103478
8.46328e-05
0.000146388
0.000179305
0.000267529
0.000360607
0.000498935
0.000645534
5.44335e-05
0.000226764
0.000274034
0.000236066
0.00020163
0.000214765
0.000324649
0.000465731
0.000664638
0.000896478
0.00112441
0.00133302
6.94873e-05
0.000315581
0.000316262
0.0002887
0.00030585
0.00043493
0.000633838
0.000865545
0.00113515
0.00140694
0.00165169
0.00186496
8.1119e-05
0.000383724
0.000416968
0.000419577
0.000524399
0.000730721
0.000972475
0.00124403
0.00153008
0.00180232
0.00204436
0.00225386
9.15674e-05
0.000462793
0.000544867
0.000608951
0.000778574
0.00101421
0.00127782
0.0015523
0.0018246
0.00208291
0.0023151
0.0025168
0.000100343
0.000534242
0.00068438
0.000818792
0.00103769
0.0012894
0.00155037
0.00181356
0.00206629
0.00230032
0.00250895
0.00269098
0.000109014
0.000625254
0.000850853
0.00107969
0.00132987
0.00157987
0.00182158
0.00205278
0.00226725
0.00246198
0.00263565
0.00278768
0.000119276
0.000728776
0.00108293
0.00137392
0.00162653
0.00185079
0.00205202
0.00223428
0.00239763
0.00254508
0.00267905
0.00279978
0.000132852
0.00083208
0.00127465
0.00158023
0.00181517
0.0020042
0.00216496
0.00230622
0.00243374
0.00254759
0.00265309
0.0027506
0.000153067
0.000782471
0.00134569
0.00167417
0.00190038
0.00207775
0.00222185
0.00234385
0.00244485
0.00253378
0.00261478
0.00269002
0.000273706
0.000754075
0.00141456
0.00178602
0.00199214
0.00215564
0.00229281
0.00239238
0.00247256
0.00253917
0.00259739
0.00265025
0.000168769
0.000170008
0.000169756
0.000169186
0.000167485
0.000164151
0.000159324
0.000152374
0.000142951
0.00013023
0.000113473
5.4962e-05
0.000791793
0.00091526
0.000994574
0.00101641
0.000989067
0.000924655
0.00082526
0.000691098
0.00053143
0.00032265
0.000161069
9.36191e-05
0.00150716
0.00162831
0.00168714
0.00169241
0.00164192
0.00153961
0.00138646
0.00118166
0.000923847
0.000617788
0.000272298
0.000124205
0.00203899
0.00216545
0.00223774
0.0022589
0.00222498
0.00213137
0.00196863
0.00172959
0.00140819
0.000997943
0.000487421
0.000151511
0.00242643
0.00255773
0.0026439
0.00268348
0.00267201
0.00260232
0.00246119
0.0022278
0.00186577
0.00136421
0.000713475
0.000177864
0.00268541
0.00281886
0.00291549
0.00297341
0.00298949
0.00295628
0.00285609
0.00265849
0.00231557
0.00176462
0.000997355
0.000204939
0.00284554
0.00297177
0.0030693
0.00313866
0.00318032
0.00318925
0.00314727
0.00301264
0.00271469
0.00215772
0.00129131
0.000232482
0.00291881
0.00302937
0.00311985
0.00319298
0.00325181
0.00329661
0.00331517
0.00326568
0.00305487
0.00252861
0.00158092
0.000262928
0.00290764
0.00300374
0.00308911
0.00316329
0.00322938
0.00329846
0.0033671
0.003406
0.00331567
0.00287422
0.00183883
0.000296201
0.00284063
0.00292535
0.0030067
0.00308491
0.00315708
0.00322904
0.0033265
0.0034381
0.00348301
0.00319196
0.00213793
0.000331533
0.00276134
0.00283117
0.00290193
0.00297903
0.00306998
0.00314384
0.00324019
0.00338465
0.00353339
0.00344767
0.00249574
0.000371
0.00270145
0.00275527
0.00281461
0.00288207
0.00297953
0.00306951
0.00315618
0.00330407
0.0035075
0.00360637
0.00290745
0.000420769
0.00168447
0.00176324
0.0018914
0.00204352
0.00217481
0.00229484
0.00239596
0.00246673
0.002523
0.00256693
0.00260358
0.00263528
0.00272618
0.00255055
0.00248004
0.00247236
0.00248773
0.0025123
0.00253519
0.002558
0.00258348
0.00260354
0.00262131
0.00263599
0.00339949
0.0031897
0.00302163
0.00290554
0.00281265
0.00275226
0.0027142
0.0026878
0.00267645
0.00266359
0.00265377
0.00264949
0.0036221
0.00346303
0.00329862
0.00314517
0.00300745
0.00289381
0.00280747
0.00274728
0.00271397
0.00269365
0.00268941
0.00270637
0.00266798
0.0027086
0.00275999
0.00282322
0.00292124
0.0030207
0.00310549
0.00325002
0.00345731
0.00370936
0.00378169
0.0017737
0.00265765
0.00269472
0.00274618
0.00281367
0.00291113
0.00300931
0.00310221
0.00324382
0.00342826
0.00365929
0.00409533
0.00304733
0.00267306
0.00272309
0.00278509
0.00286628
0.00295306
0.00305691
0.00316696
0.00329126
0.00344547
0.00361364
0.00399233
0.00365349
0.00274497
0.00282477
0.00289716
0.00298334
0.00307856
0.00318307
0.00329926
0.00341257
0.0035379
0.00364434
0.00387526
0.00379505
0.00168452
0.00176333
0.00189154
0.00204372
0.00217513
0.00229515
0.00239635
0.00246712
0.00252339
0.00256729
0.0026039
0.00263554
0.0027263
0.00255068
0.00248022
0.00247262
0.00248805
0.00251266
0.00253559
0.00255842
0.00258388
0.00260399
0.00262172
0.00263636
0.00339965
0.00318983
0.0030218
0.00290577
0.00281295
0.00275264
0.0027146
0.0026882
0.00267687
0.00266406
0.00265425
0.00264996
0.00362237
0.0034632
0.00329883
0.00314545
0.00300778
0.00289418
0.00280789
0.00274775
0.00271444
0.00269413
0.00268992
0.00270692
0.00266819
0.00270875
0.0027601
0.00282331
0.00292134
0.00302085
0.00310566
0.0032502
0.00345753
0.00370965
0.00378191
0.00177382
0.00265799
0.00269504
0.00274649
0.00281399
0.00291148
0.0030097
0.00310262
0.00324426
0.00342876
0.00365982
0.00409584
0.0030477
0.00267352
0.00272356
0.00278559
0.00286683
0.00295364
0.00305755
0.00316764
0.00329199
0.00344623
0.00361443
0.00399308
0.00365411
0.00274554
0.00282542
0.00289787
0.00298411
0.00307939
0.00318396
0.00330018
0.00341352
0.00353885
0.00364529
0.00387618
0.00379581
0.0016847
0.00176352
0.00189175
0.00204393
0.0021753
0.00229538
0.00239657
0.00246739
0.00252371
0.00256767
0.00260435
0.00263607
0.00272668
0.00255103
0.00248059
0.00247294
0.00248835
0.00251296
0.00253588
0.00255872
0.00258422
0.0026043
0.00262208
0.00263676
0.00340025
0.00319035
0.00302228
0.00290622
0.00281336
0.002753
0.00271496
0.00268857
0.00267722
0.00266436
0.00265454
0.00265025
0.0036231
0.00346386
0.00329939
0.00314593
0.00300821
0.00289461
0.00280827
0.00274805
0.00271473
0.0026944
0.00269016
0.00270714
0.0026688
0.00270944
0.00276087
0.00282416
0.00292224
0.00302175
0.00310662
0.00325127
0.0034587
0.00371074
0.00378249
0.00177394
0.00265843
0.00269553
0.00274703
0.00281458
0.00291209
0.00301034
0.00310331
0.00324504
0.00342962
0.0036607
0.00409661
0.00304802
0.00267383
0.00272389
0.00278595
0.00286719
0.00295404
0.00305797
0.00316808
0.00329249
0.00344681
0.00361507
0.00399382
0.00365461
0.00274576
0.00282561
0.00289807
0.00298431
0.00307961
0.0031842
0.00330045
0.00341383
0.00353924
0.00364573
0.00387674
0.00379632
0.00168469
0.00176357
0.00189185
0.00204408
0.00217551
0.00229557
0.00239676
0.00246753
0.00252379
0.00256766
0.00260426
0.00263587
0.00272683
0.00255114
0.00248069
0.00247308
0.00248852
0.00251314
0.00253607
0.0025589
0.00258438
0.00260441
0.00262213
0.00263675
0.00340059
0.0031906
0.00302248
0.00290641
0.00281353
0.00275318
0.00271513
0.00268874
0.0026774
0.00266452
0.00265466
0.00265033
0.00362349
0.00346417
0.00329965
0.00314613
0.0030084
0.00289477
0.00280842
0.0027482
0.00271487
0.00269452
0.00269024
0.00270714
0.0026685
0.00270905
0.00276038
0.00282354
0.00292148
0.00302096
0.00310567
0.00325005
0.00345724
0.00370925
0.00378156
0.00177364
0.00265835
0.00269536
0.00274677
0.00281416
0.00291159
0.00300969
0.00310248
0.00324395
0.00342827
0.00365924
0.0040952
0.00304729
0.00267386
0.00272383
0.00278575
0.00286688
0.00295353
0.00305727
0.00316725
0.00329141
0.00344551
0.00361361
0.00399218
0.00365341
0.00274572
0.00282544
0.0028977
0.0029838
0.00307891
0.00318332
0.00329941
0.00341266
0.00353788
0.00364426
0.00387503
0.00379481
0.00349457
0.00333091
0.00317215
0.00302709
0.00290138
0.00280135
0.00272897
0.00268346
0.00266398
0.00266671
0.00270329
0.00278489
0.003405
0.00324478
0.00309185
0.00295123
0.00282761
0.00272612
0.00264827
0.00259349
0.00256102
0.00254951
0.00256728
0.00264681
0.00333835
0.00318725
0.00303939
0.00289837
0.00276709
0.00264852
0.00254333
0.0024492
0.00236217
0.002278
0.00220855
0.00220003
0.00328059
0.00314357
0.00300229
0.00285791
0.00271112
0.00256521
0.0024186
0.00226211
0.00208625
0.00186969
0.00161566
0.00140097
0.00288257
0.00304737
0.00314998
0.00324144
0.00334708
0.00344754
0.00354567
0.00362613
0.00369551
0.00374548
0.00377724
0.00367831
0.00279229
0.00310463
0.00323813
0.00333784
0.00344563
0.00354135
0.00362666
0.00368847
0.00372362
0.00373112
0.00370641
0.00357645
0.00233734
0.00299336
0.003214
0.00333332
0.00344434
0.00353985
0.00362057
0.00366852
0.00368511
0.00367801
0.00363041
0.00349552
0.00141427
0.00266147
0.0030852
0.00325932
0.00337916
0.00347742
0.00355862
0.00360095
0.00361135
0.00359997
0.00354785
0.0034238
0.00349485
0.00333121
0.00317251
0.0030275
0.00290182
0.00280181
0.00272945
0.00268396
0.00266448
0.00266723
0.00270391
0.0027856
0.00340534
0.00324516
0.0030923
0.00295172
0.0028281
0.00272661
0.00264876
0.00259397
0.00256153
0.00255002
0.00256796
0.00264754
0.00333872
0.00318767
0.00303989
0.00289891
0.00276762
0.00264902
0.00254381
0.00244965
0.00236261
0.00227846
0.00220909
0.00220062
0.00328094
0.00314399
0.00300281
0.00285848
0.00271168
0.00256572
0.00241907
0.00226254
0.00208659
0.00187003
0.00161598
0.00140131
0.00288333
0.00304824
0.00315095
0.00324245
0.00334813
0.00344861
0.00354674
0.00362719
0.00369653
0.00374646
0.00377818
0.00367909
0.00279308
0.00310566
0.00323928
0.00333904
0.00344685
0.00354256
0.00362785
0.00368963
0.00372471
0.00373217
0.00370738
0.00357726
0.00233802
0.00299444
0.00321526
0.00333466
0.0034457
0.00354118
0.00362187
0.00366976
0.00368628
0.00367912
0.00363143
0.00349638
0.00141465
0.00266245
0.00308652
0.00326075
0.00338063
0.00347886
0.00356001
0.00360226
0.00361259
0.00360115
0.00354893
0.00342469
0.00349557
0.00333183
0.00317303
0.00302795
0.00290222
0.00280217
0.00272976
0.00268421
0.00266471
0.00266744
0.00270405
0.00278571
0.00340606
0.00324576
0.00309279
0.00295213
0.00282847
0.00272693
0.00264902
0.00259419
0.00256169
0.00255017
0.00256803
0.00264761
0.00333946
0.00318827
0.00304035
0.00289928
0.00276794
0.0026493
0.00254404
0.00244983
0.00236275
0.00227857
0.00220915
0.00220065
0.0032817
0.00314459
0.00300326
0.00285882
0.00271197
0.00256597
0.00241927
0.0022627
0.00208671
0.00187013
0.00161605
0.00140133
0.00288343
0.00304832
0.00315102
0.00324251
0.00334821
0.00344873
0.00354688
0.0036274
0.00369681
0.0037468
0.00377854
0.00367946
0.00279311
0.00310564
0.00323923
0.00333897
0.00344679
0.00354256
0.00362789
0.00368972
0.00372487
0.00373236
0.00370761
0.0035775
0.00233802
0.00299437
0.00321511
0.00333447
0.00344551
0.00354104
0.00362177
0.00366972
0.00368631
0.00367919
0.00363153
0.00349651
0.00141465
0.00266236
0.00308627
0.00326044
0.00338031
0.00347858
0.00355978
0.0036021
0.00361249
0.00360109
0.00354892
0.00342472
0.00349585
0.00333206
0.00317322
0.00302811
0.00290236
0.00280228
0.00272984
0.00268427
0.00266474
0.00266743
0.0027039
0.00278541
0.00340626
0.00324592
0.00309293
0.00295224
0.00282857
0.00272698
0.00264904
0.00259416
0.0025616
0.00255005
0.00256765
0.00264714
0.00333957
0.00318837
0.00304044
0.00289935
0.00276799
0.00264932
0.00254402
0.00244976
0.00236262
0.00227836
0.00220878
0.00220024
0.00328175
0.00314464
0.00300331
0.00285886
0.00271197
0.00256597
0.00241923
0.00226261
0.00208663
0.00186993
0.00161579
0.00140107
0.00288305
0.00304779
0.00315025
0.00324168
0.0033472
0.00344757
0.00354566
0.00362605
0.00369534
0.00374523
0.00377688
0.003678
0.00279262
0.00310489
0.00323826
0.00333792
0.00344564
0.00354127
0.00362654
0.0036883
0.00372335
0.00373076
0.00370596
0.00357602
0.00233753
0.0029935
0.00321401
0.00333329
0.00344424
0.00353969
0.00362038
0.00366826
0.00368477
0.0036776
0.0036299
0.00349501
0.00141438
0.00266153
0.00308514
0.00325919
0.00337898
0.0034772
0.00355837
0.00360064
0.00361097
0.0035995
0.00354728
0.00342322
0.00322483
0.00310319
0.00297045
0.00282277
0.00265845
0.00248528
0.00229432
0.00207271
0.00180097
0.00143473
0.000875945
0.000268278
0.00315979
0.00305562
0.00293573
0.00278747
0.00261163
0.00241836
0.00219295
0.00192406
0.00159659
0.00118228
0.00059922
0.000139893
0.0030805
0.00299485
0.00289151
0.00274769
0.00256973
0.00236637
0.00212229
0.00183044
0.00148788
0.00110492
0.000605399
0.000121956
0.0029852
0.00291686
0.00283142
0.00269774
0.00252636
0.00232358
0.00207656
0.00178392
0.00145632
0.00112867
0.000700383
0.000124491
0.00286949
0.00281767
0.00274861
0.00263035
0.00247241
0.00227914
0.00204111
0.00176184
0.00145839
0.00114948
0.000755205
0.000128831
0.00272653
0.00269012
0.00263623
0.00253622
0.00239649
0.00221888
0.00199659
0.0017352
0.00144859
0.0011334
0.000756684
0.000132136
0.00254419
0.00252259
0.00248307
0.00240222
0.00228381
0.00212537
0.00192134
0.001677
0.00139921
0.00107657
0.00071647
0.000132927
0.00230339
0.00229603
0.00227003
0.00220787
0.00211266
0.00197519
0.00179172
0.00156337
0.0012933
0.000977454
0.000635676
0.000131211
0.00197294
0.00197782
0.00196506
0.00192054
0.0018464
0.00173368
0.00157906
0.00136893
0.00111289
0.000823785
0.000516278
0.000126017
0.00150223
0.00151519
0.00151383
0.00148556
0.00143097
0.00134833
0.00123786
0.00106056
0.000842728
0.000606177
0.000358695
0.000116253
0.000825716
0.000838034
0.00084265
0.000830068
0.000801319
0.000756575
0.000699905
0.000603078
0.000458511
0.000317159
0.000168497
0.000100107
8.95754e-05
9.19971e-05
9.40451e-05
9.49743e-05
9.45693e-05
9.28031e-05
8.96157e-05
8.46066e-05
7.7132e-05
6.60101e-05
5.14432e-05
3.20728e-05
0.000352184
0.00218231
0.00288767
0.00313598
0.00326862
0.00337287
0.00345829
0.00350242
0.00351411
0.00350287
0.00345386
0.00334982
0.00030613
0.00193336
0.00268073
0.00297696
0.00312491
0.00323722
0.00332911
0.003381
0.00340004
0.0033899
0.00334894
0.00326621
0.000281994
0.00173415
0.00247199
0.00279328
0.00295634
0.00307705
0.00317571
0.00323899
0.0032684
0.0032651
0.0032326
0.0031664
0.000263438
0.00155304
0.00226193
0.002593
0.00276809
0.00289605
0.00300054
0.00307593
0.00311561
0.00312417
0.00310199
0.00305248
0.000247054
0.00137915
0.00204731
0.00237953
0.00256237
0.00269537
0.00280456
0.00288922
0.00293974
0.00296006
0.00295257
0.00292012
0.000231238
0.00120368
0.00182485
0.00215283
0.0023382
0.00247301
0.00258519
0.00267595
0.00273672
0.00276873
0.00277554
0.00276001
0.000215698
0.00101186
0.00159008
0.00191004
0.00209099
0.00222299
0.00233529
0.00242961
0.00249857
0.00254092
0.00256053
0.00256055
0.00020042
0.000804663
0.00133782
0.00164573
0.00181141
0.00193398
0.00204216
0.00213683
0.00221061
0.00226071
0.00229058
0.00230385
0.000184207
0.000603567
0.00106749
0.00134772
0.00148299
0.00158703
0.00168475
0.00177461
0.00184807
0.00190149
0.00193758
0.0019605
0.000165516
0.000421497
0.00077707
0.000984684
0.00106922
0.00114324
0.00122248
0.00130141
0.0013699
0.00142133
0.00145688
0.0014831
0.000143663
0.000254933
0.000435896
0.000517577
0.000547841
0.000585048
0.000632399
0.000684961
0.00073291
0.000768519
0.000791861
0.000810476
3.78849e-05
4.17048e-05
5.0019e-05
5.719e-05
6.21168e-05
6.61534e-05
7.0098e-05
7.42339e-05
7.81394e-05
8.15067e-05
8.44164e-05
8.70642e-05
0.00322517
0.00310359
0.00297096
0.00282335
0.00265904
0.0024858
0.00229478
0.0020731
0.00180127
0.00143496
0.000876088
0.000268333
0.00316013
0.00305597
0.00293623
0.00278806
0.0026122
0.00241888
0.00219342
0.00192445
0.00159689
0.00118248
0.000599311
0.000139928
0.00308085
0.00299514
0.00289198
0.00274827
0.00257029
0.0023669
0.00212277
0.00183085
0.00148821
0.00110517
0.000605535
0.000121996
0.00298554
0.00291713
0.00283186
0.00269829
0.0025269
0.00232411
0.00207705
0.00178435
0.00145667
0.00112898
0.000700572
0.000124535
0.00286983
0.00281793
0.002749
0.00263086
0.00247293
0.00227965
0.00204159
0.00176227
0.00145876
0.00114981
0.000755432
0.000128877
0.00272686
0.00269039
0.0026366
0.0025367
0.00239698
0.00221938
0.00199707
0.00173563
0.00144898
0.00113373
0.000756933
0.000132186
0.00254449
0.00252286
0.00248343
0.00240266
0.00228428
0.00212585
0.0019218
0.00167743
0.00139959
0.00107689
0.00071671
0.000132977
0.00230365
0.00229629
0.00227038
0.00220828
0.0021131
0.00197565
0.00179217
0.00156379
0.00129367
0.000977765
0.000635883
0.000131261
0.00197316
0.00197805
0.00196538
0.00192091
0.00184681
0.00173411
0.00157948
0.00136932
0.00111324
0.000824064
0.000516379
0.000126063
0.00150238
0.00151538
0.0015141
0.00148586
0.00143132
0.00134867
0.00123821
0.00106089
0.000843019
0.0006064
0.000358757
0.000116294
0.000825814
0.000838147
0.000842809
0.000830255
0.000801523
0.000756782
0.000700104
0.00060329
0.000458693
0.000317283
0.000168534
0.000100143
8.9585e-05
9.20091e-05
9.40608e-05
9.49937e-05
9.4591e-05
9.28265e-05
8.96402e-05
8.4631e-05
7.71564e-05
6.60342e-05
5.14614e-05
3.20855e-05
0.00035228
0.00218316
0.002889
0.00313747
0.00327017
0.00337439
0.00345975
0.0035038
0.0035154
0.00350412
0.003455
0.00335077
0.000306223
0.00193418
0.00268207
0.00297851
0.00312652
0.0032388
0.00333063
0.00338243
0.00340137
0.00339117
0.00335012
0.00326723
0.000282085
0.00173494
0.00247333
0.00279485
0.00295798
0.00307867
0.00317729
0.00324045
0.00326977
0.00326638
0.00323379
0.00316745
0.000263527
0.00155383
0.00226324
0.00259456
0.00276974
0.00289769
0.00300213
0.00307741
0.00311701
0.00312547
0.00310317
0.00305352
0.000247142
0.00137991
0.00204857
0.00238106
0.00256398
0.00269698
0.00280613
0.00289072
0.00294114
0.00296136
0.00295374
0.00292114
0.000231324
0.0012044
0.00182605
0.00215429
0.00233973
0.00247455
0.00258669
0.0026774
0.00273808
0.00276999
0.00277669
0.00276101
0.000215781
0.00101254
0.0015912
0.00191138
0.0020924
0.00222441
0.00233669
0.00243097
0.00249985
0.00254211
0.0025616
0.0025615
0.0002005
0.000805262
0.00133883
0.0016469
0.00181265
0.00193522
0.00204338
0.00213803
0.00221174
0.00226176
0.00229154
0.00230469
0.000184282
0.000604065
0.00106835
0.00134868
0.00148399
0.00158803
0.00168573
0.00177558
0.00184899
0.00190235
0.00193836
0.00196119
0.000165586
0.000421866
0.000777749
0.000985359
0.00106989
0.00114391
0.00122315
0.00130208
0.00137055
0.00142193
0.00145743
0.00148359
0.000143724
0.000255145
0.000436285
0.000517912
0.000548173
0.000585374
0.000632731
0.000685295
0.000733232
0.000768819
0.000792131
0.000810713
3.78992e-05
4.17238e-05
5.00516e-05
5.72251e-05
6.21521e-05
6.61877e-05
7.01313e-05
7.42664e-05
7.81702e-05
8.15351e-05
8.44422e-05
8.70869e-05
0.00322596
0.00310421
0.0029714
0.00282367
0.00265929
0.00248602
0.00229496
0.00207324
0.00180137
0.00143503
0.000876146
0.000268344
0.00316099
0.00305664
0.00293668
0.00278837
0.00261245
0.00241908
0.00219357
0.00192457
0.00159696
0.00118253
0.000599366
0.000139929
0.00308175
0.00299588
0.00289245
0.00274858
0.00257053
0.00236707
0.0021229
0.00183093
0.00148825
0.00110517
0.00060555
0.00012199
0.00298648
0.0029179
0.00283237
0.00269861
0.00252714
0.00232427
0.00207716
0.00178441
0.00145668
0.00112894
0.000700579
0.000124526
0.00287076
0.00281871
0.00274954
0.00263121
0.00247318
0.00227982
0.0020417
0.00176232
0.00145876
0.00114979
0.000755444
0.000128868
0.00272775
0.00269115
0.00263716
0.00253706
0.00239724
0.00221955
0.00199717
0.00173568
0.00144898
0.00113375
0.000756934
0.000132176
0.00254533
0.00252358
0.00248396
0.00240302
0.00228453
0.00212601
0.0019219
0.00167748
0.00139961
0.00107693
0.000716723
0.000132967
0.00230439
0.00229693
0.00227085
0.0022086
0.00211333
0.0019758
0.00179226
0.00156384
0.00129369
0.000977796
0.000635898
0.000131252
0.00197376
0.00197855
0.00196575
0.00192116
0.001847
0.00173421
0.00157954
0.00136936
0.00111324
0.00082411
0.000516375
0.000126057
0.0015028
0.00151571
0.00151432
0.00148602
0.00143142
0.00134874
0.00123824
0.00106091
0.000843019
0.000606424
0.000358777
0.000116286
0.000826011
0.000838308
0.000842906