/*--------------------------------*- C++ -*----------------------------------*\
| =========                 |                                                 |
| \\      /  F ield         | OpenFOAM: The Open Source CFD Toolbox           |
|  \\    /   O peration     | Version:  4.0                                   |
|   \\  /    A nd           | Web:      www.OpenFOAM.org                      |
|    \\/     M anipulation  |                                                 |
\*---------------------------------------------------------------------------*/
FoamFile
{
    version     2.0;
    format      ascii;
    class       volScalarField;
    location    "350";
    object      p;
}
// * * * * * * * * * * * * * * * * * * * * * * * * * * * * * * * * * * * * * //

dimensions      [0 2 -2 0 0 0 0];

internalField   nonuniform List<scalar> 
3072
(
-0.000183436
-0.121711
-0.23063
-0.301991
-0.329795
-0.306665
-0.2735
-0.185118
-0.00986077
0.0777427
-0.10908
-0.388792
0.665214
0.463737
0.335105
0.270501
0.280537
0.419109
0.673589
0.978012
1.6633
2.15997
2.35773
2.49827
1.37226
1.08714
0.975393
0.98581
1.12446
1.4436
1.89962
2.30829
2.70834
3.01526
3.21912
3.37701
2.29483
2.05218
2.01993
2.15345
2.48687
2.92386
3.36007
3.75281
4.10273
4.36424
4.56827
4.72967
3.32242
3.19525
3.27004
3.53117
3.92882
4.36
4.76279
5.12001
5.42215
5.65106
5.82825
5.96303
4.38318
4.37322
4.5507
4.88776
5.30297
5.71254
6.07793
6.38451
6.63293
6.82504
6.97371
7.08612
5.4316
5.55447
5.81207
6.19208
6.60533
6.98526
7.30548
7.56332
7.76596
7.92073
8.0384
8.12618
6.47647
6.74771
7.06255
7.46053
7.85082
8.18562
8.45349
8.66026
8.81669
8.93282
9.01899
9.08224
7.54013
7.97418
8.32113
8.70822
9.05072
9.32352
9.52901
9.67885
9.78616
9.86229
9.91698
9.95633
8.64654
9.20491
9.56861
9.9231
10.2011
10.3958
10.528
10.6149
10.6706
10.7064
10.7309
10.7482
9.79833
10.5079
10.8284
11.0701
11.2551
11.3585
11.4126
11.4376
11.4461
11.4475
11.4484
11.4495
10.8209
11.8309
12.016
12.0628
12.1259
12.1393
12.1269
12.1049
12.0822
12.0646
12.0559
12.0523
-0.629253
-0.713078
-0.659909
-0.448887
-0.119156
0.324379
0.840257
1.37658
1.85411
2.23506
2.41243
2.26772
2.58088
2.62748
2.67154
2.73103
2.8189
2.93298
3.06101
3.18681
3.29171
3.46673
3.41257
2.73327
3.46922
3.54244
3.61534
3.70337
3.8017
3.89826
3.98453
4.03116
4.00903
3.98724
3.84252
2.86143
4.84764
4.94178
5.0161
5.07264
5.10975
5.1246
5.11108
5.03609
4.87775
4.68132
4.40419
3.14853
6.06001
6.13041
6.17873
6.20654
6.21226
6.19111
6.13196
6.02002
5.82288
5.54134
5.20769
3.7553
7.16768
7.22477
7.26049
7.27579
7.26933
7.23703
7.16838
7.05027
6.85741
6.56603
6.2178
4.7735
8.18948
8.23289
8.25905
8.26912
8.26259
8.23687
8.18548
8.09739
7.95298
7.72675
7.45032
6.15504
9.1277
9.15904
9.17911
9.18975
9.19183
9.18497
9.16642
9.13068
9.06929
8.96228
8.84681
7.89013
9.9849
10.0054
10.0208
10.0341
10.0481
10.0654
10.0867
10.1142
10.1539
10.2046
10.335
9.90915
10.7618
10.7726
10.7838
10.7987
10.8231
10.8633
10.9233
11.0127
11.1507
11.3658
11.85
12.1445
11.4532
11.4572
11.4654
11.4809
11.5107
11.566
11.654
11.7908
12.0023
12.3545
13.233
14.4099
12.0553
12.0573
12.0649
12.0801
12.1099
12.168
12.2644
12.4196
12.6524
13.0516
14.0322
15.9023
0.00052697
-0.121025
-0.230103
-0.301542
-0.329461
-0.306369
-0.273151
-0.184859
-0.00989322
0.0784004
-0.107873
-0.38762
0.665794
0.464259
0.3355
0.270772
0.280619
0.418759
0.673271
0.97708
1.66208
2.15966
2.35768
2.49848
1.3728
1.08745
0.975394
0.985488
1.12385
1.44239
1.89859
2.30744
2.70759
3.01503
3.21903
3.3771
2.29514
2.05195
2.01933
2.15223
2.48532
2.92247
3.35899
3.752
4.10215
4.36395
4.56812
4.72965
3.32264
3.1949
3.26914
3.52984
3.92751
4.35897
4.76205
5.11944
5.4218
5.65088
5.8282
5.96305
4.38355
4.37298
4.55002
4.88684
5.30213
5.71193
6.07748
6.38427
6.63278
6.82504
6.97373
7.08621
5.43218
5.55443
5.81166
6.19156
6.60492
6.98498
7.30534
7.56327
7.766
7.92082
8.03853
8.12632
6.47719
6.74784
7.06243
7.46035
7.8507
8.18559
8.45353
8.66038
8.81685
8.93301
9.01919
9.08244
7.54082
7.97442
8.32119
8.70825
9.05079
9.32366
9.52919
9.67907
9.7864
9.86254
9.91722
9.95657
8.6471
9.20516
9.5688
9.92326
10.2013
10.3961
10.5283
10.6152
10.6709
10.7067
10.7312
10.7484
9.79874
10.5081
10.8285
11.0703
11.2553
11.3588
11.4129
11.4379
11.4464
11.4478
11.4487
11.4498
10.8212
11.831
12.0161
12.063
12.1261
12.1396
12.1272
12.1052
12.0824
12.0648
12.0561
12.0525
-0.628115
-0.712152
-0.659116
-0.448282
-0.118668
0.324717
0.840509
1.37674
1.85423
2.23512
2.41244
2.26777
2.58117
2.62781
2.67184
2.73129
2.81909
2.93314
3.06113
3.18691
3.29178
3.46678
3.41263
2.73336
3.46937
3.54265
3.61555
3.70355
3.80187
3.8984
3.98465
4.03127
4.00913
3.98734
3.84264
2.86157
4.84768
4.94186
5.0162
5.07276
5.10987
5.12472
5.1112
5.0362
4.87786
4.68143
4.40432
3.1487
6.0601
6.13051
6.17885
6.20666
6.21239
6.19123
6.13208
6.02013
5.82301
5.54147
5.20782
3.75546
7.16777
7.22491
7.26061
7.27593
7.26946
7.23717
7.1685
7.0504
6.85753
6.56613
6.21792
4.77364
8.18963
8.23304
8.25921
8.26927
8.26274
8.23701
8.18562
8.09752
7.95309
7.72688
7.4504
6.15514
9.12789
9.15923
9.17929
9.18992
9.192
9.18513
9.16657
9.13082
9.06942
8.96236
8.8469
7.89021
9.98513
10.0056
10.021
10.0343
10.0483
10.0655
10.0869
10.1144
10.1541
10.2047
10.3351
9.90921
10.762
10.7728
10.784
10.7989
10.8233
10.8635
10.9235
11.0128
11.1508
11.3659
11.8501
12.1446
11.4534
11.4574
11.4656
11.4811
11.5109
11.5662
11.6542
11.791
12.0025
12.3546
13.2331
14.41
12.0555
12.0575
12.0651
12.0803
12.1101
12.1682
12.2646
12.4198
12.6526
13.0517
14.0323
15.9024
0.000561498
-0.120955
-0.229924
-0.301325
-0.329173
-0.306051
-0.272913
-0.184543
-0.00928152
0.0782566
-0.108489
-0.388029
0.66597
0.464577
0.336025
0.271456
0.281463
0.419949
0.67438
0.978896
1.66402
2.16051
2.35826
2.49883
1.37317
1.0882
0.976566
0.987027
1.12562
1.44476
1.90067
2.30929
2.70925
3.01606
3.21991
3.37779
2.29578
2.05327
2.02112
2.15472
2.48815
2.92502
3.36111
3.75374
4.10358
4.36502
4.56901
4.73039
3.32336
3.1963
3.2712
3.53239
3.92997
4.36102
4.7637
5.12083
5.42291
5.65177
5.82894
5.9637
4.38407
4.37421
4.55177
4.88881
5.30392
5.71337
6.07868
6.38521
6.63359
6.82568
6.97434
7.08673
5.43241
5.55539
5.813
6.19294
6.60608
6.98592
7.30608
7.5639
7.76653
7.9213
8.03896
8.12674
6.47715
6.74851
7.06333
7.46124
7.85142
8.18615
8.45398
8.66076
8.81719
8.93332
9.01951
9.08276
7.5407
7.97487
8.3218
8.7088
9.05122
9.32398
9.52945
9.6793
9.78662
9.86276
9.91746
9.95682
8.647
9.20549
9.56917
9.92358
10.2015
10.3962
10.5284
10.6153
10.6711
10.7069
10.7314
10.7486
9.79871
10.5084
10.8288
11.0705
11.2554
11.3589
11.413
11.438
11.4465
11.4479
11.4488
11.45
10.8212
11.8313
12.0163
12.0632
12.1262
12.1397
12.1272
12.1052
12.0826
12.065
12.0563
12.0527
-0.62835
-0.712071
-0.658854
-0.44782
-0.118118
0.325351
0.84113
1.37733
1.85474
2.23558
2.41289
2.26821
2.5815
2.62816
2.67228
2.7318
2.81968
2.93374
3.06174
3.18747
3.29231
3.46726
3.41302
2.73379
3.47
3.54322
3.61612
3.70413
3.80245
3.89898
3.98521
4.03181
4.00965
3.98782
3.84305
2.86206
4.84835
4.94248
5.0168
5.07333
5.11044
5.12528
5.11174
5.03674
4.87839
4.68197
4.40481
3.14927
6.06067
6.13106
6.17937
6.20718
6.2129
6.19175
6.13259
6.02065
5.82354
5.54202
5.20834
3.75609
7.16829
7.22537
7.26109
7.27638
7.26992
7.23762
7.16898
7.05087
6.85803
6.56669
6.21848
4.77432
8.19003
8.23344
8.2596
8.26967
8.26313
8.23742
8.18603
8.09795
7.95357
7.72738
7.451
6.15585
9.12822
9.15956
9.17962
9.19026
9.19234
9.18548
9.16693
9.1312
9.06982
8.96288
8.84746
7.8909
9.9854
10.0059
10.0213
10.0346
10.0486
10.0658
10.0872
10.1147
10.1544
10.2051
10.3356
9.90983
10.7622
10.773
10.7843
10.7992
10.8236
10.8637
10.9237
11.0131
11.1511
11.3662
11.8506
12.1451
11.4537
11.4576
11.4659
11.4813
11.5111
11.5664
11.6544
11.7912
12.0026
12.3548
13.2334
14.4103
12.0557
12.0578
12.0653
12.0805
12.1103
12.1684
12.2648
12.4199
12.6527
13.0518
14.0325
15.9025
0.000291213
-0.121273
-0.230363
-0.301805
-0.329724
-0.30664
-0.273442
-0.185126
-0.010095
0.0781005
-0.108344
-0.388173
0.665551
0.463998
0.335235
0.270516
0.280384
0.418555
0.673071
0.976998
1.66209
2.15956
2.35752
2.49826
1.37256
1.08717
0.975119
0.985225
1.12363
1.44224
1.89846
2.30732
2.70747
3.01485
3.21882
3.37685
2.2949
2.05168
2.01906
2.15198
2.48512
2.92233
3.35888
3.75189
4.10205
4.36382
4.56796
4.72946
3.32242
3.19464
3.26888
3.52962
3.92734
4.35885
4.76195
5.11937
5.42172
5.65078
5.82807
5.9629
4.38337
4.37276
4.5498
4.88666
5.30202
5.71187
6.07744
6.38423
6.63273
6.82496
6.97363
7.08609
5.43203
5.55424
5.8115
6.19145
6.60487
6.98497
7.30535
7.56327
7.76599
7.92077
8.03846
8.12622
6.47708
6.74769
7.06232
7.4603
7.85071
8.18563
8.45358
8.66041
8.81686
8.93298
9.01913
9.08235
7.54073
7.97431
8.32113
8.70825
9.05083
9.32373
9.52926
9.67912
9.78642
9.86252
9.91717
9.95648
8.64706
9.20511
9.56878
9.92329
10.2013
10.3961
10.5283
10.6152
10.6709
10.7067
10.7311
10.7483
9.79873
10.5081
10.8286
11.0703
11.2554
11.3588
11.4129
11.438
11.4464
11.4478
11.4486
11.4497
10.8213
11.8311
12.0162
12.0631
12.1262
12.1397
12.1272
12.1052
12.0825
12.0648
12.0561
12.0524
-0.62874
-0.712793
-0.659758
-0.44889
-0.11923
0.324225
0.840088
1.37639
1.85395
2.23493
2.41231
2.2676
2.58089
2.62749
2.6715
2.73094
2.81875
2.93281
3.06083
3.18663
3.29154
3.4666
3.41245
2.73312
3.46908
3.54234
3.61522
3.70322
3.80154
3.89808
3.98434
4.03097
4.00884
3.98707
3.84236
2.86123
4.84746
4.94162
5.01594
5.07248
5.10958
5.12442
5.11089
5.03589
4.87753
4.6811
4.40397
3.14828
6.05991
6.13029
6.17861
6.2064
6.21211
6.19093
6.13176
6.0198
5.82266
5.5411
5.20743
3.75502
7.16762
7.22472
7.2604
7.27569
7.26919
7.23688
7.16818
7.05006
6.85717
6.56575
6.21752
4.77319
8.1895
8.23287
8.25901
8.26904
8.26248
8.23672
8.18531
8.09718
7.95273
7.72649
7.45
6.15471
9.12777
9.15907
9.17909
9.1897
9.19174
9.18485
9.16626
9.13049
9.06907
8.96198
8.8465
7.8898
9.98501
10.0054
10.0208
10.034
10.0481
10.0653
10.0866
10.114
10.1537
10.2043
10.3347
9.9088
10.7619
10.7726
10.7838
10.7987
10.8231
10.8632
10.9232
11.0125
11.1505
11.3655
11.8497
12.1442
11.4533
11.4572
11.4654
11.4808
11.5106
11.5659
11.6539
11.7907
12.0021
12.3542
13.2327
14.4095
12.0554
12.0574
12.0649
12.0801
12.1099
12.1679
12.2643
12.4194
12.6522
13.0513
14.0318
15.9018
12.8571
13.0249
12.91
12.7902
12.733
12.6823
12.6327
12.5899
12.5604
12.5454
12.5463
12.5535
13.2313
13.0934
13.0809
13.0314
12.999
12.9625
12.9248
12.8969
12.8879
12.8984
12.9287
12.9633
13.3944
13.2978
13.2607
13.1995
13.1525
13.1134
13.0864
13.0811
13.1045
13.1551
13.2306
13.3084
13.5137
13.4267
13.3541
13.2743
13.2075
13.1605
13.1424
13.1644
13.2338
13.3486
13.5006
13.6614
12.5687
12.5749
12.5851
12.5992
12.6241
12.6732
12.7575
12.8993
13.0921
13.3745
13.7026
14.6305
13.0048
13.0197
13.0353
13.0453
13.0587
13.0871
13.1434
13.2509
13.39
13.5931
13.6802
13.9552
13.3877
13.4088
13.4304
13.4298
13.4223
13.4188
13.4315
13.4851
13.5577
13.6954
13.7108
13.7882
13.7985
13.8086
13.8307
13.8051
13.7592
13.7022
13.6445
13.6118
13.5927
13.6497
13.6322
13.6962
12.8575
13.025
12.9101
12.7904
12.7331
12.6825
12.6329
12.5901
12.5606
12.5456
12.5465
12.5537
13.2317
13.0936
13.0811
13.0316
12.9991
12.9627
12.925
12.897
12.8881
12.8986
12.9289
12.9635
13.3949
13.298
13.2609
13.1997
13.1526
13.1135
13.0865
13.0812
13.1046
13.1552
13.2308
13.3085
13.5143
13.4271
13.3543
13.2745
13.2077
13.1606
13.1424
13.1644
13.2338
13.3487
13.5007
13.6616
12.5689
12.5751
12.5854
12.5994
12.6243
12.6734
12.7577
12.8995
13.0923
13.3747
13.7027
14.6307
13.005
13.02
13.0355
13.0456
13.0589
13.0874
13.1436
13.2511
13.3902
13.5933
13.6803
13.9554
13.3879
13.409
13.4306
13.4301
13.4225
13.4191
13.4318
13.4854
13.558
13.6956
13.711
13.7884
13.7987
13.8088
13.8309
13.8054
13.7594
13.7025
13.6448
13.6121
13.593
13.65
13.6325
13.6965
12.8575
13.0253
12.9104
12.7906
12.7333
12.6826
12.633
12.5902
12.5607
12.5458
12.5466
12.5539
13.2319
13.0939
13.0813
13.0318
12.9993
12.9628
12.9251
12.8971
12.8882
12.8987
12.9291
12.9637
13.3951
13.2983
13.2611
13.1999
13.1528
13.1137
13.0867
13.0813
13.1047
13.1554
13.2309
13.3087
13.5145
13.4273
13.3546
13.2747
13.2079
13.1608
13.1426
13.1645
13.2339
13.3488
13.5008
13.6617
12.5691
12.5754
12.5856
12.5996
12.6245
12.6736
12.7579
12.8996
13.0923
13.3747
13.7027
14.6308
13.0052
13.0202
13.0357
13.0458
13.0591
13.0876
13.1438
13.2513
13.3903
13.5933
13.6803
13.9555
13.3881
13.4092
13.4308
13.4303
13.4227
13.4192
13.4319
13.4856
13.5581
13.6957
13.711
13.7884
13.7989
13.809
13.8311
13.8055
13.7596
13.7027
13.6449
13.6123
13.5931
13.6502
13.6326
13.6966
12.8576
13.0252
12.9103
12.7906
12.7333
12.6827
12.633
12.5902
12.5607
12.5457
12.5465
12.5536
13.232
13.0939
13.0813
13.0319
12.9994
12.963
12.9252
12.8972
12.8882
12.8987
12.9289
12.9635
13.3951
13.2983
13.2612
13.2
13.1529
13.1138
13.0869
13.0815
13.1048
13.1554
13.2309
13.3085
13.5146
13.4274
13.3547
13.2749
13.2081
13.161
13.1429
13.1648
13.2342
13.349
13.5009
13.6616
12.5688
12.575
12.5851
12.5992
12.6241
12.6731
12.7574
12.8991
13.0919
13.3743
13.7023
14.6301
13.0049
13.0198
13.0353
13.0453
13.0586
13.0871
13.1432
13.2508
13.3898
13.5928
13.6798
13.9548
13.3878
13.4089
13.4304
13.4298
13.4222
13.4187
13.4314
13.485
13.5575
13.6951
13.7105
13.7877
13.7986
13.8086
13.8307
13.8051
13.7591
13.7021
13.6444
13.6117
13.5925
13.6496
13.632
13.6958
13.6218
13.5559
13.4799
13.402
13.3316
13.2786
13.2537
13.2681
13.3292
13.4367
13.5814
13.7508
13.7305
13.6723
13.6068
13.5414
13.4806
13.4311
13.4011
13.3994
13.4326
13.5022
13.6022
13.7265
13.8137
13.7604
13.7018
13.6432
13.586
13.5351
13.4976
13.4819
13.4965
13.5445
13.6243
13.732
13.8756
13.8256
13.7705
13.7141
13.6556
13.5991
13.5514
13.522
13.5222
13.5595
13.6342
13.692
13.9506
13.9822
14.0203
14
13.9577
13.8965
13.8268
13.7652
13.7104
13.7063
13.6638
13.696
13.9601
13.987
14.0378
14.035
14.0166
13.9832
13.9443
13.9087
13.874
13.8603
13.8167
13.8033
14.0316
14.0223
14.075
14.0804
14.073
14.0527
14.0274
14.0017
13.9734
13.9525
13.9096
13.8793
14.211
14.0963
14.123
14.1268
14.1219
14.1074
14.0879
14.0655
14.0386
14.0124
13.9698
13.9331
13.6223
13.5563
13.4802
13.4022
13.3317
13.2786
13.2537
13.2681
13.3292
13.4368
13.5815
13.751
13.7309
13.6726
13.6071
13.5416
13.4808
13.4312
13.4011
13.3994
13.4327
13.5023
13.6023
13.7266
13.814
13.7607
13.7021
13.6434
13.5862
13.5352
13.4976
13.482
13.4965
13.5445
13.6245
13.7322
13.8759
13.8258
13.7708
13.7143
13.6558
13.5993
13.5515
13.522
13.5222
13.5596
13.6344
13.6923
13.9509
13.9825
14.0206
14.0003
13.958
13.8968
13.8272
13.7655
13.7107
13.7066
13.6641
13.6962
13.9604
13.9872
14.0381
14.0353
14.0169
13.9835
13.9446
13.909
13.8743
13.8606
13.817
13.8035
14.0319
14.0226
14.0753
14.0807
14.0733
14.053
14.0277
14.002
13.9737
13.9528
13.9099
13.8795
14.2114
14.0966
14.1234
14.1271
14.1223
14.1077
14.0882
14.0658
14.0389
14.0127
13.9701
13.9334
13.6225
13.5565
13.4805
13.4025
13.332
13.2789
13.2539
13.2683
13.3293
13.4369
13.5816
13.7511
13.7311
13.6729
13.6073
13.5418
13.481
13.4314
13.4013
13.3996
13.4328
13.5024
13.6024
13.7268
13.8142
13.7609
13.7023
13.6436
13.5864
13.5355
13.4979
13.4822
13.4967
13.5447
13.6246
13.7323
13.8761
13.8261
13.771
13.7145
13.656
13.5995
13.5517
13.5223
13.5224
13.5598
13.6345
13.6923
13.9511
13.9826
14.0208
14.0005
13.9582
13.8969
13.8273
13.7657
13.7108
13.7067
13.6642
13.6964
13.9606
13.9874
14.0383
14.0356
14.0171
13.9837
13.9448
13.9092
13.8745
13.8608
13.8171
13.8037
14.0322
14.0228
14.0755
14.0809
14.0736
14.0533
14.0279
14.0022
13.9739
13.9529
13.91
13.8797
14.2117
14.0968
14.1236
14.1274
14.1225
14.108
14.0884
14.066
14.0391
14.0129
13.9703
13.9335
13.6226
13.5566
13.4806
13.4026
13.3321
13.2791
13.2542
13.2686
13.3296
13.4371
13.5817
13.751
13.7312
13.673
13.6075
13.542
13.4812
13.4316
13.4016
13.3999
13.4331
13.5026
13.6025
13.7267
13.8144
13.7611
13.7025
13.6438
13.5866
13.5356
13.498
13.4824
13.4969
13.5449
13.6247
13.7323
13.8762
13.8262
13.7711
13.7146
13.6561
13.5996
13.5518
13.5224
13.5225
13.5599
13.6346
13.6924
13.9507
13.9823
14.0204
14
13.9576
13.8964
13.8268
13.7651
13.7102
13.7061
13.6635
13.6956
13.9602
13.987
14.0379
14.035
14.0166
13.9831
13.9442
13.9086
13.8739
13.8602
13.8165
13.803
14.0318
14.0224
14.075
14.0804
14.073
14.0527
14.0273
14.0016
13.9732
13.9523
13.9094
13.879
14.2112
14.0964
14.1231
14.1268
14.1219
14.1074
14.0878
14.0654
14.0385
14.0123
13.9697
13.9329
13.9202
13.8713
13.8169
13.759
13.6959
13.6308
13.5704
13.5248
13.5056
13.5152
13.5541
13.462
13.9506
13.9009
13.8448
13.7829
13.713
13.638
13.5642
13.5024
13.465
13.4519
13.489
13.4759
13.9697
13.9181
13.8589
13.7917
13.7145
13.63
13.5451
13.4721
13.4264
13.4131
13.4471
13.4677
13.9806
13.9268
13.8639
13.7913
13.7077
13.6159
13.5238
13.4461
13.4007
13.3945
13.4296
13.4661
13.986
13.9299
13.8637
13.7866
13.6981
13.6018
13.5067
13.4295
13.3884
13.3895
13.4299
13.475
13.9881
13.9301
13.8614
13.781
13.6895
13.5912
13.4961
13.4224
13.3872
13.3955
13.4435
13.4923
13.9888
13.9295
13.8592
13.7769
13.684
13.5854
13.4921
13.4232
13.3939
13.409
13.4636
13.5148
13.9896
13.9296
13.8586
13.7756
13.6825
13.5848
13.494
13.4299
13.4056
13.4265
13.4868
13.5386
13.9918
13.9318
13.8611
13.7784
13.686
13.5894
13.5008
13.4404
13.4192
13.4445
13.5084
13.561
13.9971
13.9386
13.8693
13.7878
13.6964
13.6004
13.5122
13.4535
13.4319
13.4589
13.5246
13.5791
14.0074
13.952
13.8857
13.8064
13.7162
13.6199
13.5295
13.4691
13.4424
13.4686
13.537
13.5893
14.0171
13.9655
13.9029
13.8273
13.74
13.6447
13.5552
13.4841
13.4558
13.4795
13.5448
13.5916
14.5451
14.2502
14.1774
14.1683
14.1606
14.1483
14.1313
14.1102
14.0837
14.0545
14.0125
13.9728
14.5253
14.3142
14.2162
14.1991
14.1899
14.1782
14.1622
14.1411
14.1144
14.0833
14.0421
14.0008
14.4719
14.3113
14.24
14.2199
14.2113
14.1998
14.1839
14.1623
14.1347
14.1023
14.0616
14.0193
14.4181
14.2948
14.2536
14.2341
14.2267
14.2152
14.1991
14.1765
14.1479
14.1142
14.0736
14.0304
14.3746
14.2817
14.2616
14.2441
14.2376
14.2262
14.2094
14.1858
14.1561
14.1213
14.0805
14.0364
14.3464
14.2747
14.2668
14.2518
14.2456
14.234
14.2164
14.1917
14.1609
14.1252
14.0843
14.0394
14.3338
14.2748
14.2713
14.2581
14.2516
14.2394
14.2209
14.1951
14.1635
14.1272
14.0862
14.0407
14.333
14.2828
14.2762
14.2638
14.2559
14.2429
14.2235
14.1969
14.1647
14.1282
14.0873
14.0418
14.3401
14.2974
14.2819
14.2686
14.2583
14.2443
14.2244
14.1974
14.1651
14.1287
14.0885
14.0435
14.351
14.3153
14.2886
14.2714
14.2575
14.2426
14.2229
14.1963
14.1647
14.1295
14.0908
14.0474
14.3648
14.3312
14.2962
14.2719
14.2537
14.2376
14.2183
14.1931
14.1636
14.131
14.095
14.0545
14.3795
14.344
14.3018
14.2735
14.252
14.2341
14.2142
14.1899
14.1625
14.1323
14.0987
14.061
13.9205
13.8715
13.8172
13.7593
13.6961
13.631
13.5705
13.5248
13.5056
13.5153
13.5542
13.4621
13.9508
13.9011
13.8451
13.7831
13.7132
13.6381
13.5642
13.5025
13.465
13.4519
13.4891
13.4761
13.9699
13.9183
13.8592
13.7919
13.7147
13.6302
13.5452
13.4722
13.4264
13.4131
13.4472
13.4678
13.9808
13.927
13.8641
13.7915
13.7078
13.616
13.5239
13.4461
13.4007
13.3945
13.4296
13.4662
13.9861
13.9301
13.8639
13.7868
13.6983
13.6019
13.5067
13.4295
13.3884
13.3895
13.4299
13.475
13.9883
13.9303
13.8616
13.7812
13.6897
13.5913
13.4961
13.4224
13.3871
13.3955
13.4435
13.4924
13.989
13.9297
13.8593
13.777
13.6841
13.5855
13.4922
13.4232
13.3939
13.409
13.4637
13.5149
13.9898
13.9298
13.8588
13.7758
13.6826
13.5849
13.4941
13.4299
13.4056
13.4265
13.4868
13.5388
13.9919
13.932
13.8613
13.7786
13.6861
13.5895
13.5008
13.4404
13.4192
13.4445
13.5085
13.5611
13.9973
13.9388
13.8695
13.7879
13.6965
13.6005
13.5122
13.4535
13.4319
13.4589
13.5247
13.5793
14.0075
13.9522
13.8859
13.8066
13.7164
13.62
13.5296
13.4692
13.4424
13.4686
13.5371
13.5895
14.0173
13.9657
13.9032
13.8276
13.7402
13.6448
13.5553
13.4842
13.4558
13.4795
13.5449
13.5918
14.5457
14.2506
14.1777
14.1686
14.161
14.1486
14.1317
14.1105
14.084
14.0548
14.0128
13.9731
14.5258
14.3147
14.2165
14.1995
14.1902
14.1785
14.1626
14.1415
14.1147
14.0836
14.0424
14.0011
14.4725
14.3118
14.2404
14.2203
14.2117
14.2002
14.1843
14.1626
14.1351
14.1025
14.0619
14.0195
14.4186
14.2952
14.254
14.2345
14.2271
14.2156
14.1994
14.1769
14.1482
14.1145
14.0739
14.0306
14.3751
14.2822
14.262
14.2446
14.238
14.2266
14.2098
14.1862
14.1564
14.1216
14.0808
14.0367
14.3469
14.2751
14.2673
14.2522
14.246
14.2344
14.2168
14.192
14.1612
14.1255
14.0845
14.0396
14.3343
14.2752
14.2718
14.2586
14.252
14.2398
14.2213
14.1955
14.1638
14.1275
14.0864
14.041
14.3335
14.2832
14.2767
14.2642
14.2564
14.2433
14.2239
14.1973
14.1651
14.1284
14.0875
14.042
14.3406
14.2978
14.2824
14.2691
14.2588
14.2447
14.2248
14.1978
14.1654
14.129
14.0888
14.0438
14.3515
14.3157
14.2891
14.2718
14.2579
14.243
14.2233
14.1967
14.165
14.1298
14.0911
14.0476
14.3653
14.3316
14.2967
14.2723
14.2541
14.238
14.2187
14.1935
14.1639
14.1313
14.0953
14.0547
14.38
14.3444
14.3022
14.274
14.2524
14.2345
14.2145
14.1903
14.1628
14.1326
14.099
14.0612
13.9207
13.8718
13.8174
13.7595
13.6963
13.6312
13.5707
13.525
13.5058
13.5154
13.5543
13.4621
13.951
13.9013
13.8453
13.7833
13.7134
13.6383
13.5645
13.5027
13.4652
13.4521
13.4891
13.4761
13.9701
13.9186
13.8594
13.7921
13.7149
13.6304
13.5454
13.4724
13.4266
13.4132
13.4473
13.4679
13.981
13.9272
13.8643
13.7917
13.7081
13.6163
13.5241
13.4464
13.4009
13.3946
13.4297
13.4662
13.9864
13.9303
13.8641
13.787
13.6985
13.6022
13.5069
13.4297
13.3886
13.3896
13.43
13.4751
13.9885
13.9305
13.8618
13.7814
13.6899
13.5915
13.4963
13.4226
13.3873
13.3957
13.4436
13.4924
13.9892
13.9299
13.8595
13.7773
13.6843
13.5857
13.4924
13.4234
13.3941
13.4091
13.4638
13.5149
13.99
13.93
13.859
13.776
13.6828
13.5851
13.4943
13.4301
13.4057
13.4266
13.4869
13.5388
13.9921
13.9322
13.8615
13.7788
13.6863
13.5897
13.501
13.4406
13.4194
13.4446
13.5086
13.5612
13.9975
13.939
13.8696
13.7881
13.6967
13.6008
13.5124
13.4537
13.4321
13.459
13.5248
13.5793
14.0077
13.9524
13.886
13.8068
13.7165
13.6202
13.5298
13.4694
13.4426
13.4687
13.5371
13.5896
14.0175
13.9659
13.9033
13.8277
13.7403
13.645
13.5555
13.4843
13.456
13.4796
13.545
13.5919
14.546
14.2509
14.178
14.1689
14.1612
14.1488
14.1319
14.1107
14.0842
14.0549
14.0129
13.9732
14.5262
14.315
14.2168
14.1997
14.1905
14.1787
14.1628
14.1417
14.1149
14.0838
14.0426
14.0013
14.4728
14.312
14.2406
14.2205
14.2119
14.2004
14.1845
14.1628
14.1353
14.1027
14.062
14.0197
14.4189
14.2955
14.2543
14.2347
14.2273
14.2158
14.1996
14.1771
14.1484
14.1146
14.0741
14.0308
14.3754
14.2824
14.2622
14.2448
14.2382
14.2268
14.21
14.1864
14.1566
14.1217
14.081
14.0369
14.3472
14.2754
14.2675
14.2524
14.2462
14.2346
14.217
14.1922
14.1614
14.1257
14.0847
14.0398
14.3345
14.2755
14.272
14.2588
14.2522
14.24
14.2215
14.1957
14.164
14.1277
14.0866
14.0411
14.3338
14.2835
14.2769
14.2644
14.2566
14.2435
14.2241
14.1975
14.1653
14.1286
14.0877
14.0422
14.3409
14.2981
14.2826
14.2693
14.259
14.2449
14.225
14.198
14.1656
14.1292
14.089
14.0439
14.3518
14.316
14.2893
14.272
14.2581
14.2432
14.2235
14.1969
14.1652
14.13
14.0913
14.0478
14.3656
14.3319
14.2969
14.2725
14.2543
14.2382
14.2189
14.1937
14.1641
14.1315
14.0954
14.0549
14.3803
14.3447
14.3025
14.2742
14.2526
14.2347
14.2147
14.1905
14.163
14.1327
14.0992
14.0614
13.9209
13.8719
13.8175
13.7596
13.6964
13.6313
13.5708
13.5252
13.506
13.5156
13.5545
13.4624
13.9512
13.9015
13.8454
13.7834
13.7135
13.6384
13.5646
13.5028
13.4654
13.4523
13.4893
13.4763
13.9702
13.9187
13.8595
13.7922
13.715
13.6305
13.5455
13.4725
13.4268
13.4134
13.4475
13.4681
13.9811
13.9273
13.8644
13.7918
13.7081
13.6163
13.5242
13.4465
13.4011
13.3948
13.4299
13.4665
13.9865
13.9304
13.8642
13.7871
13.6986
13.6022
13.507
13.4298
13.3888
13.3898
13.4302
13.4753
13.9886
13.9306
13.8619
13.7815
13.69
13.5916
13.4964
13.4227
13.3875
13.3959
13.4438
13.4927
13.9894
13.93
13.8596
13.7773
13.6844
13.5858
13.4925
13.4236
13.3943
13.4093
13.464
13.5152
13.9902
13.9301
13.8591
13.7761
13.6829
13.5852
13.4944
13.4302
13.4059
13.4269
13.4871
13.5391
13.9923
13.9324
13.8616
13.7789
13.6864
13.5898
13.5012
13.4408
13.4196
13.4449
13.5088
13.5614
13.9977
13.9391
13.8697
13.7882
13.6968
13.6008
13.5126
13.4539
13.4323
13.4592
13.525
13.5795
14.0079
13.9526
13.8861
13.8069
13.7166
13.6203
13.5299
13.4695
13.4428
13.4689
13.5374
13.5898
14.0177
13.966
13.9034
13.8278
13.7404
13.6451
13.5556
13.4845
13.4562
13.4798
13.5452
13.5921
14.5452
14.2503
14.1774
14.1683
14.1607
14.1482
14.1313
14.1101
14.0836
14.0543
14.0123
13.9726
14.5254
14.3143
14.2162
14.1991
14.1899
14.1781
14.1622
14.1411
14.1143
14.0832
14.042
14.0007
14.472
14.3114
14.24
14.22
14.2113
14.1998
14.1839
14.1622
14.1346
14.1021
14.0615
14.0191
14.4181
14.2949
14.2537
14.2341
14.2267
14.2152
14.199
14.1764
14.1478
14.114
14.0735
14.0302
14.3747
14.2818
14.2616
14.2442
14.2376
14.2262
14.2094
14.1857
14.156
14.1211
14.0804
14.0363
14.3465
14.2747
14.2669
14.2518
14.2456
14.234
14.2164
14.1916
14.1608
14.1251
14.0841
14.0392
14.3339
14.2748
14.2714
14.2582
14.2516
14.2394
14.2208
14.1951
14.1634
14.1271
14.086
14.0406
14.3331
14.2828
14.2762
14.2638
14.2559
14.2429
14.2235
14.1969
14.1646
14.128
14.0871
14.0417
14.3402
14.2974
14.282
14.2686
14.2583
14.2443
14.2244
14.1974
14.165
14.1286
14.0884
14.0434
14.3511
14.3153
14.2886
14.2714
14.2575
14.2426
14.2229
14.1963
14.1646
14.1294
14.0907
14.0472
14.3649
14.3312
14.2963
14.2719
14.2537
14.2376
14.2183
14.1931
14.1635
14.1309
14.0949
14.0543
14.3796
14.344
14.3018
14.2736
14.252
14.2341
14.2141
14.1899
14.1624
14.1321
14.0986
14.0608
)
;

boundaryField
{
    rotor
    {
        type            zeroGradient;
    }
    stator
    {
        type            zeroGradient;
    }
    front
    {
        type            empty;
    }
    back
    {
        type            empty;
    }
}


// ************************************************************************* //
