/*--------------------------------*- C++ -*----------------------------------*\
| =========                 |                                                 |
| \\      /  F ield         | OpenFOAM: The Open Source CFD Toolbox           |
|  \\    /   O peration     | Version:  4.0                                   |
|   \\  /    A nd           | Web:      www.OpenFOAM.org                      |
|    \\/     M anipulation  |                                                 |
\*---------------------------------------------------------------------------*/
FoamFile
{
    version     2.0;
    format      ascii;
    class       surfaceScalarField;
    location    "350";
    object      phi;
}
// * * * * * * * * * * * * * * * * * * * * * * * * * * * * * * * * * * * * * //

dimensions      [0 3 -1 0 0 0 0];

internalField   nonuniform List<scalar> 
5952
(
5.30001e-06
-5.2851e-06
8.9237e-06
-3.62462e-06
1.16326e-05
-2.70787e-06
1.29694e-05
-1.33717e-06
1.27218e-05
2.48649e-07
1.00922e-05
2.63233e-06
4.89991e-06
5.19284e-06
-4.14693e-06
9.0493e-06
-1.86827e-05
1.45356e-05
-3.18898e-05
1.32075e-05
-4.18274e-05
9.93728e-06
7.62294e-06
-4.94505e-05
1.64313e-06
-6.92645e-06
3.72638e-06
-5.7077e-06
3.47899e-06
-2.4593e-06
1.05765e-06
1.08493e-06
-4.30284e-06
5.61009e-06
-1.37658e-05
1.20962e-05
-2.59017e-05
1.73291e-05
-3.5675e-05
1.8823e-05
-3.97032e-05
1.8564e-05
-4.21431e-05
1.56475e-05
-4.46448e-05
1.24389e-05
9.73551e-06
-4.67574e-05
8.23765e-07
-7.74935e-06
-6.96035e-08
-4.81388e-06
-3.17289e-06
6.44607e-07
-9.63676e-06
7.54923e-06
-1.89605e-05
1.49342e-05
-2.68916e-05
2.00278e-05
-3.13588e-05
2.17965e-05
-3.37346e-05
2.11992e-05
-3.45677e-05
1.93972e-05
-3.52398e-05
1.63196e-05
-3.61041e-05
1.33032e-05
1.04374e-05
-3.68061e-05
-2.33924e-06
-5.4095e-06
-6.10503e-06
-1.04776e-06
-1.15247e-05
6.06458e-06
-1.78425e-05
1.38673e-05
-2.2889e-05
1.9981e-05
-2.56687e-05
2.28079e-05
-2.68052e-05
2.29331e-05
-2.71826e-05
2.15769e-05
-2.71518e-05
1.93664e-05
-2.72463e-05
1.6414e-05
-2.74116e-05
1.34684e-05
1.05641e-05
-2.75384e-05
-4.06661e-06
-1.34197e-06
-9.17656e-06
4.06262e-06
-1.40444e-05
1.09329e-05
-1.7817e-05
1.76403e-05
-1.97945e-05
2.19589e-05
-2.02461e-05
2.32599e-05
-1.99635e-05
2.26507e-05
-1.93407e-05
2.09542e-05
-1.86261e-05
1.86518e-05
-1.81594e-05
1.59472e-05
-1.78638e-05
1.31727e-05
1.03748e-05
-1.76746e-05
-4.96395e-06
3.62286e-06
-9.51656e-06
8.61628e-06
-1.28747e-05
1.42918e-05
-1.45335e-05
1.93e-05
-1.45622e-05
2.19884e-05
-1.36696e-05
2.23678e-05
-1.24205e-05
2.14021e-05
-1.11507e-05
1.96846e-05
-1.00344e-05
1.75357e-05
-9.1941e-06
1.51068e-05
-8.58997e-06
1.25686e-05
9.95856e-06
-8.1738e-06
-4.84257e-06
8.46775e-06
-8.55278e-06
1.23278e-05
-1.04441e-05
1.61843e-05
-1.03712e-05
1.92283e-05
-8.95228e-06
2.05702e-05
-7.00836e-06
2.04246e-05
-5.00867e-06
1.94028e-05
-3.18967e-06
1.78661e-05
-1.6589e-06
1.60051e-05
-4.63653e-07
1.39118e-05
4.31557e-07
1.16734e-05
9.31668e-06
1.07354e-06
-4.6522e-06
1.31213e-05
-7.28529e-06
1.49618e-05
-7.636e-06
1.65358e-05
-6.05533e-06
1.76483e-05
-3.44337e-06
1.79588e-05
-5.7928e-07
1.7561e-05
2.13682e-06
1.66871e-05
4.52051e-06
1.54827e-05
6.50422e-06
1.40217e-05
8.07808e-06
1.23381e-05
9.28473e-06
1.04669e-05
8.42519e-06
1.01763e-05
-4.06518e-06
1.71875e-05
-5.54479e-06
1.6442e-05
-4.22591e-06
1.52174e-05
-1.25064e-06
1.46734e-05
2.43e-06
1.42786e-05
6.13182e-06
1.38596e-05
9.51161e-06
1.33077e-05
1.24265e-05
1.25681e-05
1.48394e-05
1.16089e-05
1.6767e-05
1.04106e-05
1.82652e-05
8.96888e-06
7.29506e-06
1.93954e-05
-3.7609e-06
2.09484e-05
-2.61599e-06
1.52974e-05
1.19276e-06
1.14089e-05
5.66933e-06
1.01971e-05
1.02707e-05
9.67748e-06
1.45672e-05
9.56344e-06
1.83473e-05
9.52779e-06
2.15443e-05
9.37126e-06
2.41661e-05
8.98729e-06
2.6258e-05
8.31882e-06
2.78941e-05
7.33292e-06
6.04489e-06
2.91442e-05
5.16014e-07
2.04329e-05
6.19274e-06
9.62082e-06
1.22315e-05
5.37025e-06
1.7723e-05
4.70577e-06
2.25541e-05
4.84667e-06
2.66984e-05
5.41933e-06
3.01907e-05
6.03578e-06
3.30776e-05
6.4846e-06
3.54171e-05
6.64794e-06
3.72729e-05
6.46319e-06
3.87281e-05
5.87784e-06
4.92359e-06
3.98494e-05
2.02972e-05
1.35306e-07
2.86487e-05
1.26917e-06
3.38557e-05
1.63188e-07
3.79019e-05
6.59572e-07
4.10519e-05
1.69672e-06
4.36371e-05
2.83417e-06
4.57997e-05
3.87333e-06
4.7584e-05
4.70046e-06
4.90226e-05
5.20945e-06
5.01488e-05
5.33706e-06
5.103e-05
4.99666e-06
5.17123e-05
4.24131e-06
-5.48454e-05
5.39475e-06
-5.81862e-05
3.34056e-06
-5.96603e-05
1.47416e-06
-5.93353e-05
-3.25274e-07
-5.73345e-05
-2.00076e-06
-5.35957e-05
-3.73916e-06
-4.7975e-05
-5.62069e-06
-4.04048e-05
-7.57011e-06
-3.07317e-05
-9.67316e-06
-1.91517e-05
-1.158e-05
-7.53781e-06
-1.16141e-05
-7.53784e-06
-4.81731e-05
6.81044e-06
-4.89894e-05
4.15668e-06
-4.91457e-05
1.63061e-06
-4.86752e-05
-7.9596e-07
-4.74445e-05
-3.23146e-06
-4.53174e-05
-5.86633e-06
-4.21584e-05
-8.77958e-06
-3.76801e-05
-1.20483e-05
-3.16679e-05
-1.56853e-05
-2.38709e-05
-1.9377e-05
-1.33153e-05
-2.21698e-05
-2.08531e-05
-3.74897e-05
7.49403e-06
-3.79775e-05
4.64437e-06
-3.81786e-05
1.83168e-06
-3.79499e-05
-1.02474e-06
-3.71396e-05
-4.04174e-06
-3.56805e-05
-7.32546e-06
-3.34592e-05
-1.10008e-05
-3.03536e-05
-1.51538e-05
-2.62745e-05
-1.97643e-05
-2.07153e-05
-2.49361e-05
-1.27221e-05
-3.01628e-05
-3.35751e-05
-2.7664e-05
7.61954e-06
-2.77151e-05
4.69536e-06
-2.76205e-05
1.73704e-06
-2.72999e-05
-1.34544e-06
-2.66831e-05
-4.6586e-06
-2.57046e-05
-8.30399e-06
-2.4279e-05
-1.24263e-05
-2.22847e-05
-1.7148e-05
-1.95194e-05
-2.25296e-05
-1.55071e-05
-2.89483e-05
-9.46812e-06
-3.62017e-05
-4.30432e-05
-1.75805e-05
7.52537e-06
-1.75165e-05
4.63125e-06
-1.74213e-05
1.64175e-06
-1.72444e-05
-1.52243e-06
-1.69447e-05
-4.95831e-06
-1.64749e-05
-8.77378e-06
-1.57776e-05
-1.31236e-05
-1.47882e-05
-1.81373e-05
-1.33047e-05
-2.4013e-05
-1.11236e-05
-3.11294e-05
-7.38619e-06
-3.9939e-05
-5.04293e-05
-7.91394e-06
7.2655e-06
-7.76198e-06
4.4792e-06
-7.6761e-06
1.55586e-06
-7.62663e-06
-1.57195e-06
-7.59308e-06
-4.99187e-06
-7.55509e-06
-8.81174e-06
-7.50777e-06
-1.31709e-05
-7.41087e-06
-1.82341e-05
-7.15708e-06
-2.42669e-05
-6.56911e-06
-3.17173e-05
-4.85453e-06
-4.16535e-05
-5.52839e-05
1.50147e-06
6.83756e-06
1.75394e-06
4.22677e-06
1.85818e-06
1.45163e-06
1.82616e-06
-1.53989e-06
1.65559e-06
-4.82126e-06
1.33325e-06
-8.48932e-06
8.3316e-07
-1.26707e-05
1.40793e-07
-1.75417e-05
-7.20567e-07
-2.34054e-05
-1.63756e-06
-3.08005e-05
-2.16978e-06
-4.11215e-05
-5.74537e-05
1.07997e-05
6.21421e-06
1.11897e-05
3.83673e-06
1.13654e-05
1.276e-06
1.13252e-05
-1.49959e-06
1.10474e-05
-4.54343e-06
1.04897e-05
-7.93151e-06
9.58109e-06
-1.1762e-05
8.23363e-06
-1.61941e-05
6.35455e-06
-2.15265e-05
3.91846e-06
-2.83644e-05
1.28564e-06
-3.84887e-05
-5.61682e-05
2.02162e-05
5.39342e-06
2.07638e-05
3.28914e-06
2.1055e-05
9.84914e-07
2.10796e-05
-1.5242e-06
2.08015e-05
-4.26523e-06
2.0154e-05
-7.28394e-06
1.90181e-05
-1.0626e-05
1.7223e-05
-1.43991e-05
1.45294e-05
-1.88327e-05
1.06792e-05
-2.45142e-05
5.74923e-06
-3.35588e-05
-5.0419e-05
3.00813e-05
4.45644e-06
3.07424e-05
2.628e-06
3.1147e-05
5.80385e-07
3.12815e-05
-1.65866e-06
3.1099e-05
-4.08261e-06
3.05148e-05
-6.69969e-06
2.93674e-05
-9.47845e-06
2.74103e-05
-1.24418e-05
2.42398e-05
-1.56622e-05
1.93534e-05
-1.96275e-05
1.19303e-05
-2.61356e-05
-3.84884e-05
4.07232e-05
3.58273e-06
4.13788e-05
1.97253e-06
4.18384e-05
1.20824e-07
4.20876e-05
-1.90778e-06
4.20728e-05
-4.06772e-06
4.16992e-05
-6.3259e-06
4.07779e-05
-8.55699e-06
3.90195e-05
-1.06832e-05
3.58758e-05
-1.25182e-05
3.06127e-05
-1.4364e-05
2.07217e-05
-1.62442e-05
-1.77664e-05
5.23006e-05
2.99449e-06
5.2802e-05
1.47121e-06
5.32399e-05
-3.17068e-07
5.35943e-05
-2.26202e-06
5.38027e-05
-4.27605e-06
5.37632e-05
-6.28626e-06
5.32855e-05
-8.07918e-06
5.21048e-05
-9.50227e-06
4.96949e-05
-1.0108e-05
4.51068e-05
-9.77587e-06
3.46931e-05
-5.83011e-06
1.6927e-05
5.29292e-06
-5.29236e-06
8.91815e-06
-3.62618e-06
1.16289e-05
-2.71062e-06
1.29689e-05
-1.34019e-06
1.27245e-05
2.4418e-07
1.01024e-05
2.62495e-06
4.9137e-06
5.1883e-06
-4.11571e-06
9.032e-06
-1.86492e-05
1.45332e-05
-3.18652e-05
1.32166e-05
-4.18068e-05
9.94144e-06
7.62832e-06
-4.9435e-05
1.64044e-06
-6.93219e-06
3.72957e-06
-5.71515e-06
3.4866e-06
-2.46743e-06
1.07137e-06
1.07525e-06
-4.27882e-06
5.59432e-06
-1.37298e-05
1.20765e-05
-2.58663e-05
1.73249e-05
-3.56571e-05
1.88232e-05
-3.96938e-05
1.85699e-05
-4.2134e-05
1.56568e-05
-4.46378e-05
1.24452e-05
9.74152e-06
-4.67511e-05
8.27114e-07
-7.75828e-06
-5.96952e-08
-4.82806e-06
-3.15377e-06
6.26868e-07
-9.60578e-06
7.52729e-06
-1.89281e-05
1.49167e-05
-2.6875e-05
2.00236e-05
-3.13505e-05
2.18004e-05
-3.37316e-05
2.12045e-05
-3.45663e-05
1.94044e-05
-3.52371e-05
1.63275e-05
-3.61016e-05
1.33096e-05
1.0443e-05
-3.68032e-05
-2.33346e-06
-5.42396e-06
-6.09105e-06
-1.07008e-06
-1.1505e-05
6.04114e-06
-1.78261e-05
1.38485e-05
-2.28822e-05
1.99729e-05
-2.5668e-05
2.28097e-05
-2.68059e-05
2.29382e-05
-2.71841e-05
2.15827e-05
-2.71531e-05
1.93732e-05
-2.72465e-05
1.64209e-05
-2.74114e-05
1.34742e-05
1.05692e-05
-2.75378e-05
-4.06196e-06
-1.3609e-06
-9.17036e-06
4.03928e-06
-1.4041e-05
1.09121e-05
-1.78186e-05
1.76265e-05
-1.98001e-05
2.1955e-05
-2.02522e-05
2.32618e-05
-1.99684e-05
2.26548e-05
-1.93451e-05
2.09592e-05
-1.86291e-05
1.86574e-05
-1.81612e-05
1.59526e-05
-1.78645e-05
1.31776e-05
1.0379e-05
-1.76747e-05
-4.96292e-06
3.60514e-06
-9.51907e-06
8.59612e-06
-1.28811e-05
1.42754e-05
-1.45432e-05
1.92897e-05
-1.45727e-05
2.19849e-05
-1.36781e-05
2.23683e-05
-1.24276e-05
2.14042e-05
-1.11557e-05
1.9688e-05
-1.00381e-05
1.75395e-05
-9.19613e-06
1.51109e-05
-8.59118e-06
1.25723e-05
9.96197e-06
-8.17403e-06
-4.84676e-06
8.45336e-06
-8.56104e-06
1.23122e-05
-1.04558e-05
1.61709e-05
-1.03841e-05
1.92192e-05
-8.96379e-06
2.05658e-05
-7.01795e-06
2.04231e-05
-5.01602e-06
1.9403e-05
-3.19518e-06
1.78675e-05
-1.66258e-06
1.60073e-05
-4.66034e-07
1.39144e-05
4.30299e-07
1.16761e-05
9.31922e-06
1.073e-06
-4.65823e-06
1.31136e-05
-7.29609e-06
1.49507e-05
-7.64902e-06
1.65251e-05
-6.06852e-06
1.76395e-05
-3.45507e-06
1.79531e-05
-5.88904e-07
1.75576e-05
2.12927e-06
1.66854e-05
4.51487e-06
1.54823e-05
6.50026e-06
1.40222e-05
8.07549e-06
1.23394e-05
9.28318e-06
1.04685e-05
8.42694e-06
1.01755e-05
-4.07207e-06
1.71864e-05
-5.5551e-06
1.64349e-05
-4.23793e-06
1.52081e-05
-1.26265e-06
1.46649e-05
2.41925e-06
1.42717e-05
6.12287e-06
1.38545e-05
9.50447e-06
1.33042e-05
1.2421e-05
1.25661e-05
1.48355e-05
1.1608e-05
1.67644e-05
1.04107e-05
1.82635e-05
8.96954e-06
7.29604e-06
1.93944e-05
-3.76525e-06
2.0953e-05
-2.62234e-06
1.52922e-05
1.18498e-06
1.14018e-05
5.66101e-06
1.01891e-05
1.0263e-05
9.6701e-06
1.45606e-05
9.55733e-06
1.83419e-05
9.52321e-06
2.15401e-05
9.36812e-06
2.4163e-05
8.98539e-06
2.62559e-05
8.31795e-06
2.78926e-05
7.33282e-06
6.0453e-06
2.91434e-05
5.16506e-07
2.04373e-05
6.19163e-06
9.61797e-06
1.2229e-05
5.36412e-06
1.77201e-05
4.69842e-06
2.2551e-05
4.8395e-06
2.66956e-05
5.41313e-06
3.01882e-05
6.0309e-06
3.30755e-05
6.48106e-06
3.54155e-05
6.64561e-06
3.72717e-05
6.46189e-06
3.87272e-05
5.87735e-06
4.92373e-06
3.98489e-05
2.03011e-05
1.36678e-07
2.86527e-05
1.26627e-06
3.38589e-05
1.5866e-07
3.79038e-05
6.53604e-07
4.10528e-05
1.69062e-06
4.36374e-05
2.82866e-06
4.57996e-05
3.86881e-06
4.75837e-05
4.69709e-06
4.90222e-05
5.20719e-06
5.01484e-05
5.33578e-06
5.10296e-05
4.9962e-06
5.17119e-05
4.24148e-06
-5.48327e-05
5.39777e-06
-5.81766e-05
3.34384e-06
-5.96526e-05
1.47625e-06
-5.93294e-05
-3.23378e-07
-5.73298e-05
-1.99952e-06
-5.35921e-05
-3.73793e-06
-4.79721e-05
-5.61994e-06
-4.04027e-05
-7.56941e-06
-3.073e-05
-9.67274e-06
-1.91503e-05
-1.15796e-05
-7.53681e-06
-1.16137e-05
-7.53683e-06
-4.81682e-05
6.81488e-06
-4.8985e-05
4.1605e-06
-4.91421e-05
1.63348e-06
-4.86719e-05
-7.93674e-07
-4.74418e-05
-3.2296e-06
-4.53151e-05
-5.86481e-06
-4.21566e-05
-8.77837e-06
-3.76787e-05
-1.20473e-05
-3.16669e-05
-1.56844e-05
-2.38703e-05
-1.93763e-05
-1.3315e-05
-2.2169e-05
-2.08518e-05
-3.7487e-05
7.49857e-06
-3.79749e-05
4.64821e-06
-3.81762e-05
1.83476e-06
-3.79478e-05
-1.02225e-06
-3.71377e-05
-4.03972e-06
-3.56789e-05
-7.3238e-06
-3.34578e-05
-1.09994e-05
-3.03525e-05
-1.51526e-05
-2.62737e-05
-1.97632e-05
-2.07149e-05
-2.49352e-05
-1.27221e-05
-3.01618e-05
-3.35739e-05
-2.76632e-05
7.6237e-06
-2.77139e-05
4.6988e-06
-2.76191e-05
1.73981e-06
-2.72984e-05
-1.34313e-06
-2.66816e-05
-4.65666e-06
-2.57032e-05
-8.30229e-06
-2.42778e-05
-1.24249e-05
-2.22838e-05
-1.71466e-05
-1.95187e-05
-2.25284e-05
-1.55067e-05
-2.89471e-05
-9.46791e-06
-3.62005e-05
-4.30418e-05
-1.758e-05
7.52895e-06
-1.75156e-05
4.63414e-06
-1.74201e-05
1.64423e-06
-1.72431e-05
-1.52036e-06
-1.69434e-05
-4.95645e-06
-1.64737e-05
-8.7721e-06
-1.57765e-05
-1.3122e-05
-1.47874e-05
-1.81358e-05
-1.33041e-05
-2.40115e-05
-1.11233e-05
-3.1128e-05
-7.38627e-06
-3.99378e-05
-5.04281e-05
-7.91372e-06
7.26835e-06
-7.76124e-06
4.4817e-06
-7.6752e-06
1.55797e-06
-7.62553e-06
-1.57004e-06
-7.59201e-06
-4.99013e-06
-7.55402e-06
-8.81006e-06
-7.50691e-06
-1.31692e-05
-7.41013e-06
-1.82325e-05
-7.15655e-06
-2.42653e-05
-6.56894e-06
-3.17159e-05
-4.85447e-06
-4.16522e-05
-5.52829e-05
1.50156e-06
6.83986e-06
1.75438e-06
4.22881e-06
1.85889e-06
1.45347e-06
1.82697e-06
-1.53817e-06
1.65644e-06
-4.8196e-06
1.33403e-06
-8.48767e-06
8.33857e-07
-1.2669e-05
1.41326e-07
-1.754e-05
-7.20307e-07
-2.34037e-05
-1.63735e-06
-3.07988e-05
-2.17006e-06
-4.11203e-05
-5.7453e-05
1.07995e-05
6.21592e-06
1.11899e-05
3.83836e-06
1.13658e-05
1.27758e-06
1.13257e-05
-1.49804e-06
1.1048e-05
-4.54184e-06
1.04902e-05
-7.92986e-06
9.58156e-06
-1.17603e-05
8.23394e-06
-1.61923e-05
6.35484e-06
-2.15245e-05
3.91833e-06
-2.83627e-05
1.28558e-06
-3.84872e-05
-5.61676e-05
2.02158e-05
5.39458e-06
2.07638e-05
3.29038e-06
2.10551e-05
9.86258e-07
2.10799e-05
-1.52277e-06
2.08018e-05
-4.26368e-06
2.01543e-05
-7.28227e-06
1.90183e-05
-1.06241e-05
1.72232e-05
-1.43971e-05
1.45294e-05
-1.88306e-05
1.06791e-05
-2.4512e-05
5.74894e-06
-3.35573e-05
-5.04185e-05
3.00808e-05
4.45718e-06
3.07423e-05
2.62898e-06
3.1147e-05
5.81558e-07
3.12816e-05
-1.6573e-06
3.1099e-05
-4.08108e-06
3.05149e-05
-6.69797e-06
2.93674e-05
-9.47657e-06
2.74103e-05
-1.24397e-05
2.42398e-05
-1.56599e-05
1.93532e-05
-1.96253e-05
1.19301e-05
-2.61339e-05
-3.84878e-05
4.07229e-05
3.58326e-06
4.13786e-05
1.97341e-06
4.18383e-05
1.21952e-07
4.20875e-05
-1.90641e-06
4.20727e-05
-4.06616e-06
4.1699e-05
-6.32414e-06
4.07777e-05
-8.55506e-06
3.90193e-05
-1.0681e-05
3.58756e-05
-1.25159e-05
3.06125e-05
-1.43618e-05
2.07217e-05
-1.62423e-05
-1.7766e-05
5.23002e-05
2.9951e-06
5.28015e-05
1.47216e-06
5.32394e-05
-3.15847e-07
5.35937e-05
-2.26059e-06
5.38021e-05
-4.27442e-06
5.37626e-05
-6.28448e-06
5.3285e-05
-8.07724e-06
5.21044e-05
-9.50015e-06
4.96946e-05
-1.01058e-05
4.51067e-05
-9.7735e-06
3.46929e-05
-5.82863e-06
1.69278e-05
5.29157e-06
-5.28981e-06
8.91451e-06
-3.62307e-06
1.16235e-05
-2.70768e-06
1.29618e-05
-1.33753e-06
1.27146e-05
2.48673e-07
1.00854e-05
2.63353e-06
4.89435e-06
5.19237e-06
-4.15259e-06
9.05045e-06
-1.86852e-05
1.45328e-05
-3.18882e-05
1.32036e-05
-4.18235e-05
9.93501e-06
7.62106e-06
-4.94446e-05
1.63774e-06
-6.92601e-06
3.7204e-06
-5.70521e-06
3.47119e-06
-2.4573e-06
1.04928e-06
1.08561e-06
-4.31154e-06
5.61056e-06
-1.37734e-05
1.20966e-05
-2.59054e-05
1.73248e-05
-3.56727e-05
1.88183e-05
-3.96985e-05
1.85588e-05
-4.21375e-05
1.56427e-05
-4.46382e-05
1.24357e-05
9.73305e-06
-4.67504e-05
8.21085e-07
-7.74648e-06
-7.38262e-08
-4.80997e-06
-3.17859e-06
6.47869e-07
-9.64385e-06
7.55123e-06
-1.8966e-05
1.49331e-05
-2.68909e-05
2.00219e-05
-3.13551e-05
2.17892e-05
-3.3729e-05
2.11925e-05
-3.45614e-05
1.93913e-05
-3.52335e-05
1.63147e-05
-3.60975e-05
1.32996e-05
1.04349e-05
-3.67995e-05
-2.34088e-06
-5.40513e-06
-6.10844e-06
-1.04226e-06
-1.15288e-05
6.06846e-06
-1.78444e-05
1.38671e-05
-2.28867e-05
1.99757e-05
-2.5664e-05
2.27997e-05
-2.67996e-05
2.2925e-05
-2.71764e-05
2.15697e-05
-2.71454e-05
1.93603e-05
-2.72398e-05
1.64092e-05
-2.74051e-05
1.34648e-05
1.05616e-05
-2.75319e-05
-4.0685e-06
-1.33596e-06
-9.1787e-06
4.06841e-06
-1.4045e-05
1.09352e-05
-1.78147e-05
1.76374e-05
-1.979e-05
2.19515e-05
-2.02409e-05
2.32512e-05
-1.9958e-05
2.26425e-05
-1.9335e-05
2.09471e-05
-1.86205e-05
1.8646e-05
-1.81538e-05
1.59427e-05
-1.78583e-05
1.31693e-05
1.03725e-05
-1.76692e-05
-4.96525e-06
3.63056e-06
-9.51712e-06
8.62129e-06
-1.28734e-05
1.42925e-05
-1.45303e-05
1.92953e-05
-1.45582e-05
2.19804e-05
-1.36654e-05
2.23591e-05
-1.24162e-05
2.13942e-05
-1.11465e-05
1.96778e-05
-1.00303e-05
1.75303e-05
-9.18996e-06
1.51026e-05
-8.58585e-06
1.25655e-05
9.95645e-06
-8.16972e-06
-4.84258e-06
8.47546e-06
-8.55201e-06
1.2332e-05
-1.04421e-05
1.61838e-05
-1.03685e-05
1.9223e-05
-8.94952e-06
2.05624e-05
-7.00583e-06
2.04165e-05
-5.00629e-06
1.93953e-05
-3.18729e-06
1.78597e-05
-1.65647e-06
1.59999e-05
-4.61103e-07
1.39077e-05
4.3421e-07
1.16704e-05
9.31465e-06
1.07628e-06
-4.65193e-06
1.31284e-05
-7.28381e-06
1.49651e-05
-7.63373e-06
1.65345e-05
-6.05317e-06
1.76433e-05
-3.44187e-06
1.79518e-05
-5.78255e-07
1.75536e-05
2.13762e-06
1.66801e-05
4.52133e-06
1.54765e-05
6.50518e-06
1.40165e-05
8.07925e-06
1.2334e-05
9.2861e-06
1.04638e-05
8.42314e-06
1.01778e-05
-4.0641e-06
1.71937e-05
-5.54248e-06
1.64442e-05
-4.22334e-06
1.52159e-05
-1.24862e-06
1.46691e-05
2.43124e-06
1.42724e-05
6.13244e-06
1.38528e-05
9.51188e-06
1.33011e-05
1.24267e-05
1.25622e-05
1.48397e-05
1.16039e-05
1.67675e-05
1.04066e-05
1.82657e-05
8.96585e-06
7.29301e-06
1.93961e-05
-3.75882e-06
2.09529e-05
-2.61291e-06
1.52985e-05
1.19613e-06
1.14072e-05
5.67226e-06
1.01931e-05
1.0273e-05
9.67195e-06
1.45687e-05
9.55728e-06
1.83483e-05
9.52173e-06
2.1545e-05
9.36572e-06
2.41666e-05
8.98257e-06
2.62584e-05
8.31502e-06
2.78944e-05
7.33009e-06
6.04302e-06
2.91445e-05
5.18446e-07
2.0435e-05
6.19672e-06
9.62042e-06
1.2236e-05
5.36802e-06
1.77274e-05
4.70177e-06
2.25578e-05
4.8416e-06
2.67015e-05
5.4138e-06
3.0193e-05
6.03036e-06
3.30792e-05
6.47966e-06
3.54183e-05
6.64376e-06
3.72736e-05
6.45989e-06
3.87284e-05
5.87547e-06
4.92215e-06
3.98495e-05
2.03005e-05
1.3435e-07
2.86538e-05
1.26714e-06
3.38611e-05
1.6054e-07
3.7907e-05
6.55764e-07
4.10564e-05
1.6921e-06
4.36409e-05
2.82925e-06
4.58027e-05
3.86855e-06
4.75862e-05
4.69618e-06
4.90241e-05
5.20594e-06
5.01496e-05
5.33445e-06
5.10303e-05
4.99497e-06
5.1712e-05
4.2405e-06
-5.48387e-05
5.39375e-06
-5.81787e-05
3.3399e-06
-5.96528e-05
1.47393e-06
-5.93278e-05
-3.25279e-07
-5.73274e-05
-2.00052e-06
-5.35891e-05
-3.73869e-06
-4.79691e-05
-5.61998e-06
-4.04e-05
-7.56919e-06
-3.07281e-05
-9.672e-06
-1.91495e-05
-1.15786e-05
-7.53715e-06
-1.16128e-05
-7.53724e-06
-4.81657e-05
6.80902e-06
-4.89819e-05
4.15585e-06
-4.91383e-05
1.63034e-06
-4.8668e-05
-7.95806e-07
-4.74377e-05
-3.2309e-06
-4.53112e-05
-5.86538e-06
-4.21529e-05
-8.77825e-06
-3.76755e-05
-1.20467e-05
-3.16642e-05
-1.56832e-05
-2.38685e-05
-1.93745e-05
-1.33141e-05
-2.21673e-05
-2.08513e-05
-3.7483e-05
7.49241e-06
-3.79708e-05
4.64347e-06
-3.81719e-05
1.83145e-06
-3.79435e-05
-1.02435e-06
-3.71338e-05
-4.04076e-06
-3.56753e-05
-7.32396e-06
-3.34547e-05
-1.09988e-05
-3.03498e-05
-1.51515e-05
-2.62715e-05
-1.97615e-05
-2.0713e-05
-2.4933e-05
-1.27207e-05
-3.01595e-05
-3.35719e-05
-2.76576e-05
7.61801e-06
-2.7709e-05
4.6947e-06
-2.76148e-05
1.73714e-06
-2.72946e-05
-1.34465e-06
-2.66783e-05
-4.65718e-06
-2.57003e-05
-8.30199e-06
-2.42753e-05
-1.24238e-05
-2.22817e-05
-1.7145e-05
-1.95169e-05
-2.25262e-05
-1.55054e-05
-2.89445e-05
-9.46719e-06
-3.61976e-05
-4.30391e-05
-1.75753e-05
7.52407e-06
-1.75115e-05
4.63083e-06
-1.74166e-05
1.64212e-06
-1.724e-05
-1.52134e-06
-1.69407e-05
-4.95656e-06
-1.64713e-05
-8.7714e-06
-1.57744e-05
-1.31206e-05
-1.47855e-05
-1.81338e-05
-1.33027e-05
-2.4009e-05
-1.11222e-05
-3.1125e-05
-7.38549e-06
-3.99343e-05
-5.04246e-05
-7.90993e-06
7.26436e-06
-7.75808e-06
4.47893e-06
-7.67235e-06
1.5564e-06
-7.62308e-06
-1.57068e-06
-7.58977e-06
-4.9899e-06
-7.55208e-06
-8.80912e-06
-7.50509e-06
-1.31676e-05
-7.40863e-06
-1.82302e-05
-7.15536e-06
-2.42625e-05
-6.56795e-06
-3.17125e-05
-4.85397e-06
-4.16485e-05
-5.52788e-05
1.50425e-06
6.83646e-06
1.75673e-06
4.22656e-06
1.86091e-06
1.45222e-06
1.8288e-06
-1.53854e-06
1.65808e-06
-4.8192e-06
1.33556e-06
-8.48657e-06
8.35223e-07
-1.26672e-05
1.42513e-07
-1.75376e-05
-7.19234e-07
-2.34007e-05
-1.63671e-06
-3.07954e-05
-2.16937e-06
-4.11162e-05
-5.74482e-05
1.08013e-05
6.2131e-06
1.11915e-05
3.8365e-06
1.13672e-05
1.2766e-06
1.13269e-05
-1.49823e-06
1.1049e-05
-4.54134e-06
1.04912e-05
-7.92871e-06
9.58248e-06
-1.17585e-05
8.23481e-06
-1.61899e-05
6.35542e-06
-2.15216e-05
3.91898e-06
-2.8359e-05
1.28584e-06
-3.84832e-05
-5.61626e-05
2.0217e-05
5.39231e-06
2.07647e-05
3.28892e-06
2.10558e-05
9.85535e-07
2.10804e-05
-1.5228e-06
2.08023e-05
-4.26311e-06
2.01547e-05
-7.28111e-06
1.90187e-05
-1.06224e-05
1.72235e-05
-1.43948e-05
1.45298e-05
-1.88276e-05
1.06794e-05
-2.45086e-05
5.74919e-06
-3.35532e-05
-5.04134e-05
3.00815e-05
4.45548e-06
3.07425e-05
2.62792e-06
3.1147e-05
5.81123e-07
3.12814e-05
-1.65716e-06
3.10988e-05
-4.08042e-06
3.05146e-05
-6.69681e-06
2.93672e-05
-9.47486e-06
2.741e-05
-1.24374e-05
2.42396e-05
-1.56572e-05
1.93531e-05
-1.9622e-05
1.193e-05
-2.61299e-05
-3.84832e-05
4.0723e-05
3.58213e-06
4.13783e-05
1.97274e-06
4.18377e-05
1.218e-07
4.20867e-05
-1.90609e-06
4.20718e-05
-4.06538e-06
4.1698e-05
-6.32292e-06
4.07767e-05
-8.55336e-06
3.90183e-05
-1.06789e-05
3.58747e-05
-1.25133e-05
3.06119e-05
-1.43588e-05
2.07211e-05
-1.62389e-05
-1.77617e-05
5.22998e-05
2.99442e-06
5.28008e-05
1.47186e-06
5.32384e-05
-3.15754e-07
5.35925e-05
-2.26007e-06
5.38007e-05
-4.2735e-06
5.37611e-05
-6.28312e-06
5.32833e-05
-8.07544e-06
5.21026e-05
-9.49788e-06
4.96928e-05
-1.01032e-05
4.5105e-05
-9.77099e-06
3.4692e-05
-5.82542e-06
1.69306e-05
5.2933e-06
-5.29268e-06
8.91873e-06
-3.62637e-06
1.16296e-05
-2.71067e-06
1.29695e-05
-1.34011e-06
1.2725e-05
2.44362e-07
1.01024e-05
2.62546e-06
4.91252e-06
5.18956e-06
-4.12007e-06
9.03519e-06
-1.86558e-05
1.45354e-05
-3.1872e-05
1.32168e-05
-4.18138e-05
9.94172e-06
7.62825e-06
-4.9442e-05
1.64083e-06
-6.93285e-06
3.73013e-06
-5.71549e-06
3.48703e-06
-2.4673e-06
1.07121e-06
1.07596e-06
-4.2805e-06
5.59606e-06
-1.37339e-05
1.20795e-05
-2.58718e-05
1.73276e-05
-3.5662e-05
1.88257e-05
-3.9698e-05
1.85715e-05
-4.21387e-05
1.56575e-05
-4.46426e-05
1.24457e-05
9.74157e-06
-4.6756e-05
8.27446e-07
-7.75926e-06
-5.9181e-08
-4.82858e-06
-3.1535e-06
6.27256e-07
-9.60641e-06
7.52894e-06
-1.89299e-05
1.49196e-05
-2.68775e-05
2.00274e-05
-3.13536e-05
2.18036e-05
-3.37349e-05
2.12072e-05
-3.45696e-05
1.94062e-05
-3.52407e-05
1.63286e-05
-3.61054e-05
1.33102e-05
1.04432e-05
-3.68071e-05
-2.33305e-06
-5.42531e-06
-6.09033e-06
-1.07088e-06
-1.15045e-05
6.04181e-06
-1.78265e-05
1.38511e-05
-2.28838e-05
1.9977e-05
-2.56702e-05
2.2814e-05
-2.68085e-05
2.29418e-05
-2.71868e-05
2.15855e-05
-2.71559e-05
1.93751e-05
-2.72496e-05
1.64221e-05
-2.74146e-05
1.34749e-05
1.05694e-05
-2.7541e-05
-4.06144e-06
-1.36272e-06
-9.16976e-06
4.03846e-06
-1.40409e-05
1.09132e-05
-1.78193e-05
1.763e-05
-1.98016e-05
2.19597e-05
-2.02539e-05
2.32664e-05
-1.99703e-05
2.26586e-05
-1.93472e-05
2.09621e-05
-1.86312e-05
1.86594e-05
-1.81634e-05
1.59539e-05
-1.78668e-05
1.31783e-05
1.03792e-05
-1.76769e-05
-4.9625e-06
3.60316e-06
-9.51889e-06
8.59557e-06
-1.28814e-05
1.42771e-05
-1.45441e-05
1.92937e-05
-1.45736e-05
2.19898e-05
-1.36792e-05
2.2373e-05
-1.24287e-05
2.14081e-05
-1.11569e-05
1.9691e-05
-1.00394e-05
1.75416e-05
-9.19749e-06
1.51123e-05
-8.59252e-06
1.2573e-05
9.96215e-06
-8.17535e-06
-4.84677e-06
8.45147e-06
-8.56128e-06
1.2312e-05
-1.04564e-05
1.6173e-05
-1.03847e-05
1.92232e-05
-8.9643e-06
2.05706e-05
-7.0183e-06
2.04277e-05
-5.01631e-06
1.94069e-05
-3.1955e-06
1.78705e-05
-1.66295e-06
1.60095e-05
-4.66403e-07
1.39158e-05
4.29959e-07
1.16768e-05
9.31936e-06
1.07271e-06
-4.65838e-06
1.3112e-05
-7.29665e-06
1.4951e-05
-7.64975e-06
1.65274e-05
-6.06895e-06
1.76433e-05
-3.45508e-06
1.79575e-05
-5.88591e-07
1.75619e-05
2.12975e-06
1.66891e-05
4.51543e-06
1.54852e-05
6.50084e-06
1.40244e-05
8.07608e-06
1.23407e-05
9.2838e-06
1.04692e-05
8.42706e-06
1.01762e-05
-4.07265e-06
1.71854e-05
-5.55594e-06
1.64355e-05
-4.23864e-06
1.52103e-05
-1.26292e-06
1.46682e-05
2.41946e-06
1.42757e-05
6.12348e-06
1.38584e-05
9.50536e-06
1.33077e-05
1.24221e-05
1.25688e-05
1.48367e-05
1.161e-05
1.67656e-05
1.04119e-05
1.82648e-05
8.97015e-06
7.29612e-06
1.93958e-05
-3.76575e-06
2.09527e-05
-2.62306e-06
1.5293e-05
1.18429e-06
1.1404e-05
5.66059e-06
1.01922e-05
1.0263e-05
9.67366e-06
1.4561e-05
9.56083e-06
1.83427e-05
9.5263e-06
2.15412e-05
9.37061e-06
2.41642e-05
8.98717e-06
2.62573e-05
8.31903e-06
2.78942e-05
7.33329e-06
6.04528e-06
2.91451e-05
5.16314e-07
2.04371e-05
6.19089e-06
9.61938e-06
1.22279e-05
5.36667e-06
1.7719e-05
4.70156e-06
2.25502e-05
4.84283e-06
2.66951e-05
5.41627e-06
3.01881e-05
6.03358e-06
3.30758e-05
6.48315e-06
3.54162e-05
6.64703e-06
3.72727e-05
6.46264e-06
3.87285e-05
5.87755e-06
4.92348e-06
3.98504e-05
2.02995e-05
1.38106e-07
2.86502e-05
1.2686e-06
3.3856e-05
1.61621e-07
3.79009e-05
6.56782e-07
4.10501e-05
1.69365e-06
4.36352e-05
2.83133e-06
4.57979e-05
3.87096e-06
4.75826e-05
4.69862e-06
4.90217e-05
5.20807e-06
5.01484e-05
5.33601e-06
5.10301e-05
4.99592e-06
5.17128e-05
4.24081e-06
-5.48395e-05
5.39763e-06
-5.81831e-05
3.3435e-06
-5.96587e-05
1.47584e-06
-5.9335e-05
-3.23861e-07
-5.73348e-05
-2.00004e-06
-5.35966e-05
-3.73854e-06
-4.7976e-05
-5.62052e-06
-4.04059e-05
-7.57004e-06
-3.07326e-05
-9.67338e-06
-1.91523e-05
-1.15803e-05
-7.53803e-06
-1.16144e-05
-7.53805e-06
-4.8173e-05
6.81467e-06
-4.89897e-05
4.16006e-06
-4.91466e-05
1.63287e-06
-4.86762e-05
-7.94418e-07
-4.74457e-05
-3.23049e-06
-4.53186e-05
-5.86582e-06
-4.21596e-05
-8.77947e-06
-3.76811e-05
-1.20485e-05
-3.16687e-05
-1.56857e-05
-2.38715e-05
-1.93775e-05
-1.33156e-05
-2.21703e-05
-2.08536e-05
-3.74909e-05
7.49837e-06
-3.79787e-05
4.64768e-06
-3.81799e-05
1.83396e-06
-3.79512e-05
-1.02328e-06
-3.71408e-05
-4.04097e-06
-3.56815e-05
-7.32523e-06
-3.346e-05
-1.1001e-05
-3.03542e-05
-1.51543e-05
-2.62749e-05
-1.97649e-05
-2.07155e-05
-2.49369e-05
-1.27223e-05
-3.01636e-05
-3.35759e-05
-2.76663e-05
7.62346e-06
-2.77169e-05
4.69818e-06
-2.7622e-05
1.73886e-06
-2.7301e-05
-1.34438e-06
-2.6684e-05
-4.65819e-06
-2.57052e-05
-8.30406e-06
-2.42794e-05
-1.24268e-05
-2.2285e-05
-1.71487e-05
-1.95195e-05
-2.25304e-05
-1.55072e-05
-2.89492e-05
-9.46816e-06
-3.62026e-05
-4.30441e-05
-1.75822e-05
7.52868e-06
-1.75178e-05
4.63346e-06
-1.74221e-05
1.64316e-06
-1.7245e-05
-1.52177e-06
-1.69451e-05
-4.95818e-06
-1.64751e-05
-8.77411e-06
-1.57776e-05
-1.31243e-05
-1.47881e-05
-1.81382e-05
-1.33045e-05
-2.4014e-05
-1.11233e-05
-3.11304e-05
-7.3861e-06
-3.994e-05
-5.04302e-05
-7.91499e-06
7.26805e-06
-7.76245e-06
4.48095e-06
-7.67632e-06
1.55682e-06
-7.62655e-06
-1.57155e-06
-7.59289e-06
-4.99199e-06
-7.55475e-06
-8.81222e-06
-7.50745e-06
-1.31717e-05
-7.41044e-06
-1.8235e-05
-7.15664e-06
-2.42679e-05
-6.56879e-06
-3.17184e-05
-4.85427e-06
-4.16544e-05
-5.52847e-05
1.50129e-06
6.83952e-06
1.75415e-06
4.22803e-06
1.85869e-06
1.4523e-06
1.82682e-06
-1.53973e-06
1.65634e-06
-4.8215e-06
1.33399e-06
-8.48988e-06
8.33896e-07
-1.26715e-05
1.41477e-07
-1.75427e-05
-7.20013e-07
-2.34064e-05
-1.63694e-06
-3.08014e-05
-2.16964e-06
-4.11224e-05
-5.74543e-05
1.08001e-05
6.21557e-06
1.11906e-05
3.83758e-06
1.13665e-05
1.27641e-06
1.13264e-05
-1.49957e-06
1.10486e-05
-4.54371e-06
1.04908e-05
-7.93204e-06
9.58211e-06
-1.17627e-05
8.2345e-06
-1.6195e-05
6.35542e-06
-2.15273e-05
3.91893e-06
-2.83652e-05
1.28607e-06
-3.84892e-05
-5.61684e-05
2.02172e-05
5.39421e-06
2.07652e-05
3.28962e-06
2.10565e-05
9.85129e-07
2.10812e-05
-1.52424e-06
2.0803e-05
-4.26546e-06
2.01554e-05
-7.28435e-06
1.90193e-05
-1.06265e-05
1.72241e-05
-1.43997e-05
1.45302e-05
-1.88333e-05
1.06798e-05
-2.45145e-05
5.74951e-06
-3.3559e-05
-5.04187e-05
3.00826e-05
4.45674e-06
3.0744e-05
2.6282e-06
3.11487e-05
5.80453e-07
3.12833e-05
-1.65871e-06
3.11006e-05
-4.08276e-06
3.05163e-05
-6.69988e-06
2.93687e-05
-9.47871e-06
2.74113e-05
-1.2442e-05
2.42406e-05
-1.56624e-05
1.93539e-05
-1.96275e-05
1.19306e-05
-2.61354e-05
-3.84873e-05
4.07246e-05
3.58267e-06
4.13803e-05
1.97253e-06
4.18401e-05
1.20809e-07
4.20893e-05
-1.90779e-06
4.20744e-05
-4.06773e-06
4.17005e-05
-6.32586e-06
4.0779e-05
-8.55694e-06
3.90203e-05
-1.06831e-05
3.58763e-05
-1.25181e-05
3.06129e-05
-1.43638e-05
2.07221e-05
-1.62435e-05
-1.7765e-05
5.23014e-05
2.99418e-06
5.2803e-05
1.47105e-06
5.3241e-05
-3.17129e-07
5.35953e-05
-2.26201e-06
5.38036e-05
-4.27592e-06
5.3764e-05
-6.28602e-06
5.32861e-05
-8.07882e-06
5.21051e-05
-9.50183e-06
4.96949e-05
-1.01075e-05
4.51067e-05
-9.77507e-06
3.46929e-05
-5.82972e-06
1.69286e-05
6.61214e-05
3.88634e-06
-6.98719e-05
6.55413e-05
1.84926e-06
6.42667e-05
1.43772e-06
6.36001e-05
1.32615e-06
6.34479e-05
1.84885e-06
6.35929e-05
2.68924e-06
6.38571e-05
3.60917e-06
6.41157e-05
4.44197e-06
6.43014e-05
5.02381e-06
6.43924e-05
5.24618e-06
6.4436e-05
4.95318e-06
4.21455e-06
6.44629e-05
8.50724e-05
2.94145e-06
-8.4128e-05
8.4814e-05
2.10741e-06
8.42133e-05
2.03812e-06
8.34184e-05
2.12089e-06
8.26399e-05
2.62716e-06
8.18943e-05
3.43479e-06
8.11481e-05
4.35525e-06
8.03683e-05
5.22178e-06
7.95487e-05
5.84344e-06
7.87177e-05
6.07724e-06
7.7969e-05
5.702e-06
4.80293e-06
7.73807e-05
9.8341e-05
1.93094e-06
-9.73305e-05
9.86864e-05
1.76176e-06
9.86791e-05
2.04525e-06
9.83175e-05
2.48219e-06
9.76829e-05
3.26165e-06
9.68112e-05
4.30638e-06
9.57254e-05
5.44094e-06
9.44627e-05
6.4845e-06
9.30904e-05
7.21578e-06
9.17259e-05
7.44178e-06
9.05404e-05
6.88754e-06
5.60103e-06
8.97424e-05
0.000110323
-0.000109746
1.35282e-06
0.000110584
1.50067e-06
0.000110541
2.0878e-06
0.000110151
2.87175e-06
0.000109418
3.99502e-06
0.000108368
5.35556e-06
0.000107053
6.75625e-06
0.000105561
7.97637e-06
0.00010403
8.74683e-06
0.000102673
8.79851e-06
0.000101738
7.82216e-06
0.00010168
5.65949e-06
6.46287e-05
2.82877e-06
6.49045e-05
1.19559e-06
6.53131e-05