/*--------------------------------*- C++ -*----------------------------------*\
| =========                 |                                                 |
| \\      /  F ield         | OpenFOAM: The Open Source CFD Toolbox           |
|  \\    /   O peration     | Version:  4.0                                   |
|   \\  /    A nd           | Web:      www.OpenFOAM.org                      |
|    \\/     M anipulation  |                                                 |
\*---------------------------------------------------------------------------*/
FoamFile
{
    version     2.0;
    format      ascii;
    class       volVectorField;
    location    "350";
    object      U;
}
// * * * * * * * * * * * * * * * * * * * * * * * * * * * * * * * * * * * * * //

dimensions      [0 1 -1 0 0 0 0];

internalField   nonuniform List<vector> 
3072
(
(0.269582 2.22046 0)
(0.293735 1.9314 0)
(0.377437 1.75879 1.4039e-19)
(0.493016 1.65791 7.4297e-19)
(0.613272 1.58422 -1.24866e-18)
(0.736684 1.568 8.48198e-19)
(0.927149 1.72173 3.88232e-19)
(1.4438 1.65071 6.97489e-19)
(2.46488 1.52314 -1.98994e-19)
(2.97377 1.95528 8.61799e-19)
(3.17867 2.19698 7.30224e-19)
(3.48831 2.35153 6.71118e-19)
(-0.392124 2.74568 -2.57991e-19)
(-0.221114 2.37779 -5.73543e-19)
(0.0416328 2.35389 5.22158e-19)
(0.332125 2.37874 0)
(0.698871 2.4439 1.02735e-18)
(1.34616 2.42443 -1.22654e-18)
(2.18615 2.64853 0)
(2.74695 2.81904 0)
(3.00169 2.82202 0)
(3.09036 2.89137 7.49222e-19)
(3.1373 2.88592 -2.71227e-18)
(3.25617 2.87368 3.67496e-19)
(-0.351438 3.00942 1.7334e-19)
(-0.0735334 2.72425 0)
(0.380272 2.77273 0)
(0.950247 2.81622 -3.39292e-18)
(1.67557 2.9569 1.16659e-18)
(2.32636 3.06462 -1.97852e-18)
(2.75112 3.07924 1.81995e-18)
(2.99189 3.02074 0)
(3.14108 2.89045 0)
(3.19937 2.80891 -1.0281e-18)
(3.26049 2.72392 -1.07597e-18)
(3.33878 2.63987 3.75735e-18)
(-0.267774 3.32355 -1.35487e-18)
(0.166125 3.15159 -2.35901e-18)
(0.772844 3.26409 1.95312e-18)
(1.44729 3.34279 -1.66634e-18)
(2.07185 3.38752 3.55803e-18)
(2.51744 3.32678 -3.67506e-18)
(2.78576 3.20947 -2.33971e-18)
(2.94947 3.06545 -5.69965e-18)
(3.05142 2.92718 -2.80379e-19)
(3.10499 2.8164 3.35068e-18)
(3.16055 2.71408 3.71994e-18)
(3.22047 2.61478 -2.97216e-18)
(-0.0393629 3.5243 0)
(0.443533 3.50342 1.19015e-18)
(1.05606 3.60937 -2.58177e-18)
(1.67818 3.62965 3.21054e-18)
(2.18478 3.56053 5.89387e-19)
(2.50995 3.41806 2.24058e-18)
(2.7106 3.25279 2.30947e-18)
(2.83485 3.0882 2.20608e-18)
(2.91675 2.93195 -4.66335e-18)
(2.9765 2.7956 3.97323e-18)
(3.03569 2.67223 -5.37839e-18)
(3.0958 2.55649 7.13921e-18)
(0.181395 3.70024 -4.30483e-18)
(0.676812 3.77341 1.65212e-18)
(1.23419 3.84043 4.75511e-18)
(1.76525 3.79302 0)
(2.16522 3.65595 -7.13555e-18)
(2.42111 3.47389 7.34532e-18)
(2.5874 3.28254 0)
(2.70174 3.09735 -5.44912e-18)
(2.78627 2.92563 4.65033e-18)
(2.85427 2.77277 0)
(2.9183 2.63467 2.65671e-19)
(2.98097 2.50748 4.22508e-18)
(0.382301 3.8642 0)
(0.850821 4.0164 -3.83486e-18)
(1.33212 4.02664 3.52167e-18)
(1.76448 3.92709 0)
(2.0839 3.74611 -4.20934e-18)
(2.3003 3.53439 6.64461e-19)
(2.45275 3.32013 6.00921e-18)
(2.56635 3.11659 5.5346e-18)
(2.6565 2.92931 -4.87186e-18)
(2.73292 2.76054 4.81793e-18)
(2.80332 2.60789 -4.17021e-18)
(2.87049 2.4685 -1.16839e-17)
(0.567717 4.05069 0)
(0.972737 4.25995 3.29549e-18)
(1.36273 4.20485 -4.85242e-18)
(1.70492 4.06326 4.83607e-18)
(1.96806 3.84796 0)
(2.16335 3.60893 -6.2848e-18)
(2.31246 3.3716 6.17271e-18)
(2.43101 3.14784 1.16518e-19)
(2.52927 2.94226 -1.02468e-17)
(2.61415 2.75624 -4.79349e-18)
(2.69097 2.5882 -2.64317e-19)
(2.76262 2.43572 8.60555e-18)
(0.709605 4.22453 0)
(1.04731 4.49708 -3.88817e-18)
(1.33761 4.36907 -5.42959e-18)
(1.60329 4.18533 -3.87794e-18)
(1.82644 3.93965 7.80817e-18)
(2.01017 3.67576 0)
(2.16157 3.41683 0)
(2.28809 3.17364 0)
(2.3958 2.95041 0)
(2.48954 2.74825 4.8616e-18)
(2.57318 2.56596 -4.88402e-18)
(2.64956 2.40127 4.6724e-18)
(0.823298 4.49174 0)
(1.03442 4.70635 2.72957e-18)
(1.22759 4.47401 -6.16628e-19)
(1.44464 4.23077 4.46686e-18)
(1.64464 3.9568 4.43414e-18)
(1.82394 3.67566 -7.11258e-18)
(1.98194 3.40514 0)
(2.11971 3.15266 -2.15099e-19)
(2.23965 2.92109 -1.75774e-17)
(2.3446 2.71108 0)
(2.43721 2.52152 1.09099e-17)
(2.5202 2.35023 -5.10499e-18)
(0.972668 4.56388 0)
(0.940371 4.68441 3.14719e-18)
(1.02643 4.36721 9.29521e-18)
(1.20903 4.0674 -7.93846e-18)
(1.39946 3.79101 -1.1127e-17)
(1.58452 3.52197 1.75998e-17)
(1.75611 3.26802 -1.98631e-19)
(1.91057 3.03157 -6.89337e-18)
(2.04721 2.81317 5.63813e-18)
(2.16743 2.61312 -1.1986e-17)
(2.27261 2.43084 -1.66126e-17)
(2.36548 2.26456 1.67858e-17)
(0.393813 4.17962 -1.85998e-18)
(0.563333 4.10596 -1.23797e-17)
(0.691199 3.79971 2.36591e-18)
(0.884984 3.54631 0)
(1.0963 3.348 0)
(1.30277 3.15286 3.57415e-19)
(1.49438 2.96196 1.86008e-17)
(1.66832 2.77751 1.1489e-17)
(1.82348 2.6007 0)
(1.96088 2.43371 1.08254e-17)
(2.08067 2.2775 0)
(2.1857 2.13142 4.89821e-19)
(3.73688 2.32897 3.41493e-19)
(3.96414 2.28885 -4.36271e-19)
(4.10282 2.15768 -2.73442e-19)
(4.19409 2.01961 -5.57988e-19)
(4.19562 1.84269 -2.74471e-19)
(4.15208 1.6546 0)
(4.01351 1.45329 0)
(3.81224 1.252 7.89271e-19)
(3.52121 1.04203 -9.26407e-19)
(3.13544 0.799836 0)
(2.70173 0.392582 0)
(2.56866 -0.175974 -6.43436e-19)
(3.34437 2.8537 1.60182e-18)
(3.45115 2.79166 0)
(3.55217 2.69363 -8.98397e-19)
(3.64991 2.5603 4.74258e-19)
(3.72767 2.39676 2.82345e-19)
(3.76676 2.23068 2.63399e-18)
(3.75878 2.06798 -4.27743e-18)
(3.69958 1.9195 6.70754e-19)
(3.58546 1.80486 0)
(3.3306 1.6963 0)
(3.06 1.56413 0)
(3.19601 1.07877 7.10033e-19)
(3.41197 2.55425 1.49693e-18)
(3.4911 2.46336 -4.10654e-18)
(3.56515 2.36471 1.13383e-18)
(3.62802 2.26261 2.7316e-18)
(3.67091 2.16086 -2.7857e-18)
(3.68748 2.06449 0)
(3.6728 1.98432 0)
(3.62719 1.93006 -2.28111e-19)
(3.55851 1.90543 1.08387e-18)
(3.41984 1.89637 0)
(3.19578 1.88837 0)
(3.40582 1.77441 -4.62046e-19)
(3.27801 2.5195 3.32352e-19)
(3.33866 2.42463 4.08087e-18)
(3.39836 2.32877 2.86367e-18)
(3.45186 2.23408 -2.84681e-18)
(3.49396 2.14551 0)
(3.52084 2.06916 1.66618e-18)
(3.52898 2.01271 0)
(3.52174 1.98555 2.47272e-18)
(3.49603 1.98884 -7.56221e-19)
(3.42808 2.04597 0)
(3.2485 2.13262 -5.45788e-19)
(3.54779 2.19313 6.46381e-19)
(3.15586 2.44802 -2.91123e-18)
(3.21698 2.34471 0)
(3.2762 2.24625 0)
(3.33054 2.15488 0)
(3.37758 2.07463 0)
(3.41607 2.01048 -3.02076e-18)
(3.44456 1.97097 -1.36194e-19)
(3.46268 1.96262 -1.3671e-18)
(3.47727 1.99483 0)
(3.47215 2.08313 -1.17174e-18)
(3.35639 2.22875 4.86026e-19)
(3.76874 2.43104 -1.65722e-19)
(3.04291 2.38999 -2.32677e-19)
(3.10471 2.28071 -6.94901e-18)
(3.16512 2.17953 3.27566e-18)
(3.22289 2.08822 1.9547e-21)
(3.27726 2.01005 2.14593e-19)
(3.32812 1.94954 4.70445e-18)
(3.37648 1.91285 -1.50737e-19)
(3.4244 1.90702 -5.27534e-18)
(3.47405 1.94288 -2.12315e-18)
(3.52822 2.03712 1.06981e-18)
(3.47454 2.2268 -1.32298e-18)
(3.93638 2.55115 -5.34006e-19)
(2.93571 2.34079 1.11511e-17)
(2.99983 2.22346 3.6452e-18)
(3.06287 2.11635 0)
(3.12498 2.02065 0)
(3.18679 1.93888 2.03749e-19)
(3.24968 1.87478 -3.42754e-18)
(3.3161 1.83346 5.3757e-18)
(3.38963 1.82152 -1.26846e-19)
(3.47379 1.84968 1.82303e-18)
(3.57528 1.93699 0)
(3.59706 2.12505 -2.38773e-19)
(4.09418 2.53234 -7.92687e-20)
(2.83081 2.29692 -4.12263e-18)
(2.89694 2.17026 -3.79206e-18)
(2.96206 2.05521 4.06562e-18)
(3.02741 1.95228 -3.80594e-18)
(3.0948 1.86317 9.7166e-22)
(3.16683 1.79055 7.55831e-18)
(3.24749 1.7382 -3.47268e-18)
(3.3424 1.71178 1.96272e-18)
(3.45735 1.72109 0)
(3.60475 1.78632 1.18792e-18)
(3.70443 1.95967 6.05012e-19)
(4.20152 2.41117 -9.12671e-19)
(2.72064 2.25203 4.52512e-18)
(2.78843 2.11615 -4.3805e-18)
(2.85472 1.99264 -4.08999e-18)
(2.92162 1.88121 -8.51386e-18)
(2.9918 1.78261 8.19401e-18)
(3.0689 1.69846 -7.86484e-18)
(3.15831 1.63074 0)
(3.268 1.58341 -1.87334e-18)
(3.40686 1.56385 0)
(3.59431 1.59132 0)
(3.77427 1.72813 0)
(4.25924 2.14858 4.35338e-19)
(2.59547 2.19503 4.944e-18)
(2.66555 2.05321 -9.92314e-18)
(2.73277 1.92348 9.66827e-18)
(2.79973 1.80479 9.27271e-18)
(2.86963 1.69699 4.47558e-18)
(2.94696 1.60061 0)
(3.0384 1.51555 0)
(3.15369 1.44328 4.35881e-18)
(3.30562 1.38711 0)
(3.5238 1.36275 -1.22387e-18)
(3.76614 1.42492 7.96589e-19)
(4.2465 1.73571 -1.26633e-18)
(2.44734 2.11271 -1.09999e-17)
(2.52125 1.97201 1.0146e-17)
(2.58973 1.84149 -9.90808e-18)
(2.65564 1.71954 -2.48851e-17)
(2.72236 1.60553 -2.45304e-19)
(2.79451 1.49902 1.34132e-19)
(2.88026 1.39774 -4.77253e-18)
(2.98958 1.29999 -4.36839e-18)
(3.13943 1.20278 0)
(3.36812 1.11631 3.69879e-18)
(3.64427 1.0505 9.02865e-19)
(4.1158 1.03532 -1.7794e-18)
(2.27569 1.99539 -4.87158e-19)
(2.35418 1.86525 0)
(2.42349 1.74157 0)
(2.48627 1.62245 4.77606e-18)
(2.54634 1.50724 1.45882e-17)
(2.60783 1.39521 -4.76439e-18)
(2.68003 1.28244 -2.1925e-19)
(2.77091 1.16419 -2.47106e-18)
(2.89985 1.02975 -2.29936e-18)
(3.09516 0.879446 -2.31044e-18)
(3.38135 0.656528 0)
(3.71424 -0.0293101 2.32787e-18)
(2.2209 -0.269179 9.23673e-23)
(1.93185 -0.293578 0)
(1.75901 -0.377338 -1.40396e-19)
(1.65798 -0.49297 0)
(1.58428 -0.61328 -6.25946e-19)
(1.56769 -0.736893 8.46569e-19)
(1.72111 -0.926856 0)
(1.65126 -1.442 4.73469e-19)
(1.52214 -2.46316 -1.9005e-19)
(1.95391 -2.97367 -9.35728e-20)
(2.19632 -3.17822 -7.66749e-19)
(2.35079 -3.48803 -6.7146e-19)
(2.74599 0.392232 -3.17279e-19)
(2.3777 0.221203 -1.68575e-19)
(2.35373 -0.0415262 5.88074e-19)
(2.37825 -0.331905 0)
(2.44366 -0.698148 -1.0287e-18)
(2.42392 -1.344 5.30234e-19)
(2.64701 -2.18478 0)
(2.81849 -2.74654 8.72855e-19)
(2.8212 -3.00176 -2.89405e-18)
(2.89074 -3.0907 1.93595e-18)
(2.88542 -3.13748 1.44673e-18)
(2.87319 -3.2563 -3.64639e-18)
(3.00942 0.351869 -1.73321e-19)
(2.72404 0.0742377 0)
(2.7724 -0.379247 -1.71907e-18)
(2.81557 -0.948665 0)
(2.95577 -1.67377 0)
(3.06399 -2.32563 -8.03922e-19)
(3.07865 -2.75098 4.10944e-18)
(3.02058 -2.99209 -2.96912e-18)
(2.89015 -3.14136 1.02875e-18)
(2.8086 -3.19971 0)
(2.72361 -3.26071 2.6437e-18)
(2.63957 -3.33895 -1.59495e-18)
(3.32365 0.268521 8.72585e-19)
(3.15129 -0.164986 1.36557e-18)
(3.26363 -0.771508 1.43156e-18)
(3.3422 -1.44606 2.51345e-18)
(3.38717 -2.0712 -1.64282e-18)
(3.3267 -2.51749 -1.25921e-18)
(3.20933 -2.78606 0)
(3.06538 -2.94979 0)
(2.92702 -3.05179 2.17982e-18)
(2.8162 -3.10535 0)
(2.71386 -3.16082 4.58399e-19)
(2.61457 -3.22068 1.29298e-18)
(3.52451 0.0402204 1.43737e-18)
(3.50329 -0.442358 -9.55227e-19)
(3.60931 -1.055 -2.58537e-18)
(3.62974 -1.67745 0)
(3.56075 -2.18463 0)
(3.41827 -2.51017 3.09998e-18)
(3.2529 -2.71088 0)
(3.08824 -2.8352 -5.25665e-18)
(2.93192 -2.91708 -2.22708e-18)
(2.79551 -2.9768 3.97548e-18)
(2.67211 -3.03592 -5.38113e-18)
(2.55635 -3.09598 3.39234e-18)
(3.70059 -0.180467 -2.41769e-18)
(3.77351 -0.675801 -1.42605e-18)
(3.84074 -1.2334 2.04657e-18)
(3.79346 -1.76483 3.63865e-19)
(3.6564 -2.16521 3.59653e-18)
(3.47425 -2.4213 -7.05185e-18)
(3.28277 -2.58765 6.31024e-18)
(3.09748 -2.70202 6.16529e-19)
(2.92567 -2.78653 0)
(2.77274 -2.85451 0)
(2.6346 -2.91849 8.22057e-18)
(2.50739 -2.98111 5.05507e-20)
(3.86462 -0.381571 -3.83304e-20)
(4.01666 -0.850076 -2.12306e-18)
(4.02714 -1.33157 0)
(3.92767 -1.7642 -4.25436e-18)
(3.74664 -2.08388 4.47638e-18)
(3.53481 -2.30042 1.08227e-17)
(3.32042 -2.45292 6.62529e-18)
(3.11678 -2.56655 8.22917e-19)
(2.9294 -2.6567 -1.02573e-17)
(2.76056 -2.7331 4.48943e-18)
(2.60786 -2.80347 4.78418e-18)
(2.46844 -2.87061 2.53295e-19)
(4.05108 -0.567228 2.0952e-19)
(4.26029 -0.972235 3.29768e-18)
(4.20541 -1.36234 0)
(4.06387 -1.70469 -4.83746e-18)
(3.84851 -1.968 -3.54113e-18)
(3.60937 -2.1634 6.1467e-19)
(3.37193 -2.31256 -1.16853e-17)
(3.14807 -2.43115 4.06228e-19)
(2.9424 -2.52941 -2.63659e-19)
(2.75631 -2.61428 5.03865e-18)
(2.58821 -2.69109 -4.06639e-18)
(2.4357 -2.76271 2.14198e-19)
(4.22489 -0.709426 -3.45803e-18)
(4.49742 -1.047 1.55921e-18)
(4.36958 -1.3373 -7.90312e-18)
(4.18589 -1.60308 3.87785e-18)
(3.94016 -1.82634 0)
(3.67619 -2.01015 0)
(3.41717 -2.1616 6.44978e-18)
(3.17389 -2.28817 1.17403e-17)
(2.95058 -2.39589 -5.35249e-18)
(2.74835 -2.48963 -4.863e-18)
(2.56601 -2.57326 -4.65272e-18)
(2.40128 -2.64963 0)
(4.49202 -0.823355 7.18759e-20)
(4.70654 -1.03421 4.14806e-18)
(4.47435 -1.22734 9.40634e-18)
(4.23117 -1.44442 0)
(3.95719 -1.64448 7.75165e-18)
(3.676 -1.82384 0)
(3.40543 -1.9819 3.31161e-19)
(3.15287 -2.11971 -5.70625e-18)
(2.92125 -2.23968 6.15485e-18)
(2.71118 -2.34465 0)
(2.52158 -2.43726 0)
(2.35025 -2.52024 -1.05356e-17)
(4.56389 -0.972865 -6.6168e-18)
(4.68443 -0.940235 3.14721e-18)
(4.36732 -1.02622 5.26549e-19)
(4.06757 -1.20879 -8.74815e-18)
(3.7912 -1.39925 -3.44436e-18)
(3.52216 -1.58435 -3.51917e-18)
(3.26819 -1.75599 -6.84362e-18)
(3.03172 -1.9105 -1.92933e-17)
(2.81328 -2.04718 -5.63823e-18)
(2.61319 -2.16743 -1.19866e-17)
(2.43089 -2.27263 1.16119e-17)
(2.26458 -2.3655 1.06605e-17)
(4.17956 -0.393924 3.5591e-18)
(4.10579 -0.563216 -1.42065e-18)
(3.79959 -0.690998 3.52053e-19)
(3.54626 -0.884744 7.39309e-18)
(3.34802 -1.09607 0)
(3.15292 -1.30258 -6.68804e-18)
(2.96203 -1.49424 5.99251e-18)
(2.77758 -1.66822 5.33971e-18)
(2.60076 -1.82342 -1.73544e-17)
(2.43375 -1.96085 1.08252e-17)
(2.27752 -2.08066 -1.05983e-17)
(2.13143 -2.18571 0)
(2.32853 -3.73658 -4.93038e-19)
(2.2884 -3.96391 1.20027e-18)
(2.1574 -4.10263 -9.95179e-19)
(2.01932 -4.19393 -3.30468e-19)
(1.84254 -4.19548 -3.92276e-20)
(1.65445 -4.15196 6.88645e-20)
(1.45321 -4.01341 -1.23582e-19)
(1.25193 -3.81216 -3.05713e-19)
(1.042 -3.52114 -9.26539e-19)
(0.799808 -3.13538 0)
(0.392561 -2.7017 0)
(-0.176067 -2.5686 -6.43517e-19)
(2.85334 -3.34443 -5.22735e-20)
(2.79136 -3.45116 2.11561e-18)
(2.6934 -3.55214 -8.98357e-19)
(2.56013 -3.64986 0)
(2.39661 -3.72762 1.69257e-18)
(2.23057 -3.76671 0)
(2.06789 -3.75873 1.27737e-18)
(1.91942 -3.69953 2.21671e-18)
(1.80481 -3.58542 -1.89132e-18)
(1.69626 -3.33058 0)
(1.56409 -3.05998 0)
(1.07867 -3.19601 -2.63499e-20)
(2.55398 -3.41207 1.0737e-18)
(2.46312 -3.49117 -1.01588e-18)
(2.3645 -3.56518 1.13431e-18)
(2.26243 -3.62803 0)
(2.16071 -3.6709 -1.22611e-18)
(2.06437 -3.68746 3.11614e-18)
(1.98422 -3.67277 -4.51117e-18)
(1.92998 -3.62717 -5.08189e-18)
(1.90537 -3.55849 3.04843e-18)
(1.89631 -3.41982 0)
(1.88831 -3.19577 6.0043e-19)
(1.77436 -3.40584 1.50326e-19)
(2.5193 -3.27816 1.25213e-18)
(2.42445 -3.33876 -2.84157e-18)
(2.32861 -3.39842 2.86474e-18)
(2.23394 -3.45188 -2.84784e-18)
(2.14539 -3.49396 0)
(2.06905 -3.52083 1.66664e-18)
(2.01262 -3.52896 1.15058e-18)
(1.98547 -3.52172 6.81892e-19)
(1.98878 -3.49601 -1.53541e-18)
(2.04591 -3.42806 0)
(2.13256 -3.24849 -3.51936e-19)
(2.19306 -3.54779 5.81452e-19)
(2.44788 -3.15598 3.26004e-18)
(2.34457 -3.21705 -1.69132e-18)
(2.24612 -3.27624 0)
(2.15477 -3.33055 0)
(2.07453 -3.37758 1.63928e-18)
(2.01038 -3.41605 -1.38157e-18)
(1.97089 -3.44455 -2.47012e-19)
(1.96254 -3.46266 0)
(1.99476 -3.47725 -8.13304e-19)
(2.08306 -3.47214 1.17198e-18)
(2.22869 -3.35639 -1.06386e-18)
(2.43098 -3.76877 -2.6755e-19)
(2.38989 -3.04301 -7.00042e-18)
(2.2806 -3.10477 3.35313e-18)
(2.17943 -3.16516 6.77258e-18)
(2.08813 -3.22291 1.95664e-21)
(2.00996 -3.27726 -8.10207e-18)
(1.94946 -3.32811 -3.44623e-18)
(1.91277 -3.37647 -2.37359e-19)
(1.90694 -3.42439 0)
(1.9428 -3.47404 0)
(2.03706 -3.52821 -1.06993e-18)
(2.22674 -3.47454 -7.70107e-19)
(2.5511 -3.93639 2.34084e-19)
(2.34072 -2.93579 3.80998e-18)
(2.22338 -2.99988 -7.51396e-18)
(2.11627 -3.0629 -3.33929e-18)
(2.02057 -3.12499 -1.93183e-19)
(1.93881 -3.18679 3.22296e-18)
(1.8747 -3.24968 3.19681e-18)
(1.83338 -3.31609 1.81242e-18)
(1.82145 -3.38962 1.77425e-18)
(1.84961 -3.47379 -1.97772e-18)
(1.93693 -3.57528 0)
(2.125 -3.59707 1.24051e-18)
(2.53231 -4.09421 -3.57073e-19)
(2.29688 -2.83087 0)
(2.17021 -2.89698 3.79329e-18)
(2.05515 -2.96208 0)
(1.95222 -3.02743 -1.93226e-19)
(1.8631 -3.09481 9.74882e-22)
(1.79049 -3.16684 7.56012e-18)
(1.73814 -3.24749 -7.32791e-18)
(1.71171 -3.34241 0)
(1.72102 -3.45736 -2.10847e-18)
(1.78625 -3.60476 1.18805e-18)
(1.95962 -3.70444 -2.31527e-18)
(2.41114 -4.20153 1.16458e-18)
(2.25201 -2.72069 4.52646e-18)
(2.11612 -2.78847 -4.38179e-18)
(1.9926 -2.85475 -4.43351e-18)
(1.88116 -2.92164 4.33541e-18)
(1.78255 -2.99182 4.1012e-18)
(1.6984 -3.06892 -1.20484e-17)
(1.63068 -3.15833 3.7762e-18)
(1.58334 -3.26801 0)
(1.56377 -3.40687 1.9372e-18)
(1.59125 -3.59432 0)
(1.72807 -3.77428 2.83244e-18)
(2.14857 -4.25926 -2.07048e-18)
(2.19502 -2.59551 0)
(2.05319 -2.66559 -9.92549e-18)
(1.92344 -2.73279 -5.14955e-18)
(1.80475 -2.79975 -8.99858e-18)
(1.69695 -2.86965 4.47651e-18)
(1.60056 -2.94698 4.23257e-18)
(1.51549 -3.03842 0)
(1.44322 -3.15371 0)
(1.38703 -3.30564 0)
(1.36268 -3.52382 0)
(1.42487 -3.76615 -7.98974e-19)
(1.7357 -4.24651 -1.03593e-19)
(2.11271 -2.44736 5.3619e-18)
(1.97199 -2.52128 4.91693e-18)
(1.84146 -2.58976 2.03905e-17)
(1.71951 -2.65567 5.23612e-18)
(1.60549 -2.72239 1.96908e-17)
(1.49898 -2.79454 -4.74778e-18)
(1.39769 -2.88028 -4.77309e-18)
(1.29993 -2.98961 0)
(1.20271 -3.13945 -4.56639e-18)
(1.11624 -3.36814 -2.45987e-18)
(1.05045 -3.64428 -1.84986e-18)
(1.03531 -4.11579 -1.10577e-25)
(1.9954 -2.27571 0)
(1.86524 -2.35421 0)
(1.74155 -2.42352 -2.03877e-17)
(1.62242 -2.48631 -1.48577e-17)
(1.50721 -2.54638 -4.70648e-18)
(1.39517 -2.60787 0)
(1.28239 -2.68007 4.74619e-18)
(1.16413 -2.77095 0)
(1.02968 -2.89988 -2.00262e-19)
(0.879379 -3.09518 2.31042e-18)
(0.656476 -3.38136 6.68491e-19)
(-0.0293214 -3.71424 4.60934e-18)
(-0.269272 -2.22096 1.14837e-19)
(-0.293745 -1.9319 1.92577e-19)
(-0.377534 -1.75917 -1.77572e-19)
(-0.493152 -1.65825 1.92419e-20)
(-0.613442 -1.58449 0)
(-0.736889 -1.56822 6.69441e-20)
(-0.927502 -1.72194 0)
(-1.44425 -1.65061 4.68572e-19)
(-2.46503 -1.5234 1.17042e-18)
(-2.97354 -1.95545 2.59117e-20)
(-3.17849 -2.19699 4.01448e-19)
(-3.48805 -2.35149 8.37443e-19)
(0.392036 -2.74603 4.32994e-19)
(0.220876 -2.37793 -5.75109e-19)
(-0.0418116 -2.35418 5.56254e-19)
(-0.332216 -2.37911 -3.25298e-20)
(-0.69904 -2.44418 -1.03053e-18)
(-1.34661 -2.42466 -2.05945e-19)
(-2.18619 -2.64884 -9.95747e-19)
(-2.74674 -2.81907 -1.5164e-18)
(-3.00138 -2.82209 2.73251e-18)
(-3.09004 -2.89135 -6.28923e-19)
(-3.13704 -2.88583 7.64892e-19)
(-3.25592 -2.87355 4.58816e-19)
(0.351379 -3.00951 -3.47024e-19)
(0.0733596 -2.72437 0)
(-0.380466 -2.77287 0)
(-0.950491 -2.8164 -1.44422e-18)
(-1.67577 -2.95721 0)
(-2.32614 -3.06477 -1.17522e-18)
(-2.75073 -3.07933 6.95437e-19)
(-2.99146 -3.02074 2.55237e-18)
(-3.14067 -2.89044 -1.27095e-18)
(-3.19899 -2.80888 -1.8433e-18)
(-3.26017 -2.72386 -3.72054e-18)
(-3.33848 -2.63979 3.75728e-18)
(0.267556 -3.32356 -1.74735e-18)
(-0.166431 -3.15163 -1.36792e-18)
(-0.773134 -3.26418 2.53001e-18)
(-1.4474 -3.34292 8.45099e-19)
(-2.07164 -3.3876 0)
(-2.51699 -3.32679 -4.49278e-18)
(-2.7853 -3.20946 3.63083e-18)
(-2.94903 -3.06543 0)
(-3.051 -2.92715 3.26065e-18)
(-3.10463 -2.81635 -4.80643e-18)
(-3.16024 -2.71401 3.26135e-18)
(-3.2202 -2.61469 4.40203e-19)
(0.0391479 -3.52424 2.17236e-18)
(-0.443816 -3.50345 2.90892e-18)
(-1.0562 -3.60942 8.37335e-19)
(-1.67806 -3.62966 0)
(-2.1844 -3.56051 -2.78649e-18)
(-2.50948 -3.41803 4.7996e-18)
(-2.71013 -3.25277 0)
(-2.83443 -3.08817 -2.86201e-18)
(-2.91638 -2.93192 -2.66089e-18)
(-2.97619 -2.79556 3.97241e-18)
(-3.03542 -2.67218 0)
(-3.09557 -2.55642 -3.06934e-18)
(-0.181661 -3.70014 1.8937e-18)
(-0.677035 -3.77342 6.63367e-19)
(-1.23422 -3.84042 -2.04451e-18)
(-1.76503 -3.79299 -8.84241e-18)
(-2.16483 -3.65593 -2.90827e-19)
(-2.42067 -3.47389 7.34703e-18)
(-2.58699 -3.28254 0)
(-2.70139 -3.09735 8.23482e-18)
(-2.78596 -2.92563 -4.80643e-18)
(-2.85402 -2.77275 4.22126e-18)
(-2.91809 -2.63464 2.65567e-19)
(-2.98078 -2.50743 -5.04884e-20)
(-0.38257 -3.8641 -1.70999e-18)
(-0.850986 -4.01637 -1.37928e-18)
(-1.33209 -4.02659 0)
(-1.76423 -3.92705 9.16872e-18)
(-2.08354 -3.74611 -1.26396e-17)
(-2.29993 -3.53443 -2.07548e-19)
(-2.45241 -3.32018 -1.26257e-17)
(-2.56606 -3.11664 5.03591e-19)
(-2.65626 -2.92935 -4.87038e-18)
(-2.73272 -2.76057 -4.8165e-18)
(-2.80315 -2.6079 4.7807e-18)
(-2.87036 -2.46848 -3.96e-18)
(-0.567961 -4.05061 -1.55021e-19)
(-0.972861 -4.2599 -1.77278e-18)
(-1.36266 -4.20478 0)
(-1.70469 -4.06323 4.83323e-18)
(-1.96775 -3.84798 3.32952e-18)
(-2.16304 -3.609 2.95896e-18)
(-2.31218 -3.3717 -4.93e-19)
(-2.43078 -3.14793 -1.16471e-19)
(-2.52908 -2.94235 -5.48584e-18)
(-2.61399 -2.75631 -5.75002e-19)
(-2.69085 -2.58824 2.26778e-19)
(-2.76253 -2.43574 0)
(-0.709858 -4.22446 2.15001e-18)
(-1.04738 -4.49698 0)
(-1.33752 -4.36898 0)
(-1.60309 -4.18528 -3.87636e-18)
(-1.82618 -3.93966 3.42567e-18)
(-2.00991 -3.67582 -7.02826e-18)
(-2.16133 -3.41692 0)
(-2.28789 -3.17374 5.7459e-18)
(-2.39564 -2.95051 -2.39696e-19)
(-2.48941 -2.74834 4.86022e-18)
(-2.57308 -2.56603 -5.07095e-18)
(-2.64948 -2.40131 9.72915e-18)
(-0.82344 -4.49163 4.47497e-18)
(-1.03445 -4.70623 -1.41899e-18)
(-1.2275 -4.47389 -5.0112e-18)
(-1.44446 -4.23068 -8.58045e-18)
(-1.64441 -3.95676 0)
(-1.8237 -3.67567 6.44481e-18)
(-1.98172 -3.40519 -1.30136e-17)
(-2.11951 -3.15273 5.77249e-18)
(-2.23949 -2.92117 6.15228e-18)
(-2.34448 -2.71115 0)
(-2.43712 -2.52158 -5.83035e-18)
(-2.52014 -2.35027 -9.82119e-18)
(-0.972802 -4.56379 -6.56537e-18)
(-0.940371 -4.68426 1.43098e-18)
(-1.02633 -4.36706 4.38374e-18)
(-1.20885 -4.06725 3.71473e-18)
(-1.39924 -3.7909 -4.89688e-20)
(-1.58428 -3.52191 -1.08779e-17)
(-1.75588 -3.26801 1.29974e-17)
(-1.91038 -3.03159 2.53671e-17)
(-2.04705 -2.81321 -1.77282e-17)
(-2.16731 -2.61316 -1.19828e-17)
(-2.27253 -2.43089 1.09527e-17)
(-2.36543 -2.2646 0)
(-0.393808 -4.17952 5.50009e-18)
(-0.563247 -4.10579 1.87483e-18)
(-0.691072 -3.79952 2.01365e-18)
(-0.884807 -3.54613 7.94327e-18)
(-1.09609 -3.34786 0)
(-1.30256 -3.15277 6.33016e-18)
(-1.49418 -2.96191 -1.26062e-17)
(-1.66814 -2.77749 -5.585e-18)
(-1.82333 -2.60071 -5.71311e-18)
(-1.96078 -2.43373 1.08239e-17)
(-2.0806 -2.27753 5.6567e-18)
(-2.18567 -2.13145 1.62449e-17)
(-3.73662 -2.32889 1.50916e-19)
(-3.96385 -2.28876 5.67874e-19)
(-4.10253 -2.15757 3.29599e-19)
(-4.1938 -2.01949 -7.92206e-19)
(-4.19535 -1.84258 2.34924e-19)
(-4.15183 -1.65448 0)
(-4.01329 -1.45318 -4.95392e-19)
(-3.81205 -1.2519 3.73775e-19)
(-3.52106 -1.04194 0)
(-3.13534 -0.799746 1.13545e-19)
(-2.70169 -0.392505 0)
(-2.56862 0.176026 0)
(-3.34415 -2.85352 -4.15883e-18)
(-3.45093 -2.79146 2.98941e-18)
(-3.55196 -2.69343 2.24707e-18)
(-3.64969 -2.5601 -9.36297e-19)
(-3.72746 -2.39658 0)
(-3.76655 -2.23052 0)
(-3.75859 -2.06783 1.46594e-18)
(-3.69941 -1.91935 -1.58436e-18)
(-3.58532 -1.80472 0)
(-3.3305 -1.69615 5.93735e-19)
(-3.05995 -1.564 -4.83854e-20)
(-3.19597 -1.07871 -1.07925e-18)
(-3.4117 -2.55416 1.55454e-18)
(-3.49084 -2.46325 -2.66931e-18)
(-3.5649 -2.36459 0)
(-3.6278 -2.26249 -2.76092e-18)
(-3.67071 -2.16072 -2.85766e-18)
(-3.6873 -2.06435 6.15731e-18)
(-3.67265 -1.98416 -5.50692e-18)
(-3.62707 -1.9299 0)
(-3.55841 -1.90526 0)
(-3.41976 -1.89619 0)
(-3.19573 -1.88819 -5.28303e-19)
(-3.40575 -1.77424 1.61471e-19)
(-3.27776 -2.51939 -1.2516e-18)
(-3.33844 -2.4245 -3.77175e-19)
(-3.39817 -2.32863 0)
(-3.4517 -2.23394 -3.53741e-19)
(-3.49381 -2.14535 0)
(-3.52072 -2.06899 0)
(-3.52888 -2.01254 1.30569e-18)
(-3.52166 -1.98537 -1.57424e-18)
(-3.49596 -1.98866 1.68964e-18)
(-3.42802 -2.04577 0)
(-3.24848 -2.13242 -5.45894e-19)
(-3.54774 -2.19294 -6.4657e-19)
(-3.15566 -2.44793 6.78915e-18)
(-3.21681 -2.3446 -1.69023e-18)
(-3.27606 -2.24613 3.0413e-18)
(-3.33041 -2.15475 1.37152e-18)
(-3.37747 -2.07448 -4.65989e-18)
(-3.41597 -2.01032 0)
(-3.44448 -1.9708 -1.59408e-18)
(-3.46261 -1.96243 0)
(-3.47721 -1.99463 0)
(-3.47211 -2.08292 1.17189e-18)
(-3.35639 -2.22853 3.22733e-20)
(-3.76869 -2.43082 7.29075e-19)
(-3.04276 -2.38992 -3.2608e-18)
(-3.10458 -2.28062 -2.45182e-19)
(-3.16501 -2.17943 0)
(-3.2228 -2.0881 0)
(-3.27718 -2.00991 -5.12539e-18)
(-3.32805 -1.94939 3.23156e-18)
(-3.37643 -1.91268 3.30566e-18)
(-3.42435 -1.90683 1.72957e-18)
(-3.47401 -1.94267 -4.11792e-18)
(-3.52819 -2.0369 -1.06985e-18)
(-3.47455 -2.22657 0)
(-3.93634 -2.55093 8.34131e-19)
(-2.9356 -2.34075 -7.82e-18)
(-2.99974 -2.2234 3.21804e-18)
(-3.0628 -2.11627 3.55684e-18)
(-3.12492 -2.02055 1.9379e-19)
(-3.18674 -1.93876 -4.00106e-19)
(-3.24964 -1.87464 -3.61591e-18)
(-3.31607 -1.8333 -5.275e-18)
(-3.3896 -1.82134 -1.90233e-18)
(-3.47378 -1.84948 1.82268e-18)
(-3.57527 -1.93678 0)
(-3.59708 -2.12483 2.09743e-18)
(-4.09415 -2.53211 -5.34285e-19)
(-2.83073 -2.29691 8.05583e-18)
(-2.89688 -2.17023 -4.3752e-18)
(-2.96201 -2.05515 -4.06438e-18)
(-3.02738 -1.9522 -7.41643e-18)
(-3.09478 -1.86306 7.28623e-18)
(-3.16682 -1.79043 -1.88811e-19)
(-3.24748 -1.73806 1.09981e-17)
(-3.3424 -1.71161 1.75633e-18)
(-3.45735 -1.7209 2.10767e-18)
(-3.60476 -1.78611 0)
(-3.70444 -1.95946 -1.44004e-18)
(-4.20151 -2.41095 -6.87861e-19)
(-2.72059 -2.25204 0)
(-2.7884 -2.11614 4.19634e-18)
(-2.8547 -1.99261 4.08873e-18)
(-2.92162 -1.88115 -4.17826e-18)
(-2.99181 -1.78253 -1.59236e-19)
(-3.06892 -1.69835 -4.17953e-18)
(-3.15834 -1.63061 -3.77426e-18)
(-3.26802 -1.58326 0)
(-3.40688 -1.56366 -1.93646e-18)
(-3.59433 -1.59112 -1.20562e-18)
(-3.77429 -1.72792 4.63398e-18)
(-4.25925 -2.14838 -9.91568e-19)
(-2.59543 -2.19505 0)
(-2.66555 -2.05321 0)
(-2.73278 -1.92346 0)
(-2.79975 -1.80475 -1.40197e-17)
(-2.86967 -1.69693 8.92393e-18)
(-2.94701 -1.60053 8.61548e-18)
(-3.03845 -1.51544 0)
(-3.15374 -1.44314 -4.35733e-18)
(-3.30567 -1.38694 0)
(-3.52384 -1.36257 -2.49938e-18)
(-3.76617 -1.42473 -7.98856e-19)
(-4.24652 -1.73553 -1.26646e-18)
(-2.44732 -2.11274 0)
(-2.52126 -1.97202 0)
(-2.58977 -1.84148 1.0476e-17)
(-2.6557 -1.71952 1.46547e-17)
(-2.72243 -1.60548 4.0324e-19)
(-2.79459 -1.49896 4.87962e-18)
(-2.88034 -1.39765 -2.33872e-18)
(-2.98967 -1.29987 6.61238e-18)
(-3.13951 -1.20264 4.56457e-18)
(-3.36819 -1.11615 2.29566e-18)
(-3.64432 -1.05033 -1.84956e-18)
(-4.11583 -1.03517 -1.95055e-18)
(-2.2757 -1.99542 0)
(-2.35422 -1.86527 0)
(-2.42355 -1.74158 -9.95483e-18)
(-2.48635 -1.62244 5.24171e-18)
(-2.54644 -1.50721 -4.70549e-18)
(-2.60794 -1.39516 -4.76362e-18)
(-2.68015 -1.28236 4.96437e-18)
(-2.77104 -1.16408 0)
(-2.89997 -1.02962 -4.5195e-18)
(-3.09527 -0.879308 -2.40279e-18)
(-3.38142 -0.656379 2.29634e-18)
(-3.71429 0.0294123 -4.62822e-18)
(-2.22091 0.269144 1.14437e-19)
(-1.93184 0.293547 0)
(-1.75899 0.377313 0)
(-1.65796 0.492952 5.99391e-19)
(-1.58426 0.613259 -6.51558e-19)
(-1.5677 0.73685 0)
(-1.72115 0.92686 0)
(-1.65119 1.44223 4.67969e-19)
(-1.52224 2.46348 1.2774e-18)
(-1.95417 2.97384 9.88902e-19)
(-2.19649 3.17841 -3.65223e-19)
(-2.35101 3.48824 7.30797e-19)
(-2.74599 -0.392265 -5.9877e-19)
(-2.37769 -0.221222 0)
(-2.35371 0.0415275 0)
(-2.37824 0.331932 -9.96711e-19)
(-2.44364 0.69822 2.09437e-18)
(-2.42399 1.34421 -2.18451e-18)
(-2.64716 2.18501 8.51707e-19)
(-2.81859 2.74674 7.69587e-19)
(-2.82133 3.00192 -3.9107e-19)
(-2.89087 3.09081 7.49855e-19)
(-2.88556 3.1376 0)
(-2.87335 3.25642 -1.62033e-18)
(-3.00943 -0.351912 3.46523e-19)
(-2.72403 -0.0742596 0)
(-2.77238 0.379265 0)
(-2.81557 0.948736 -8.68044e-19)
(-2.95578 1.6739 6.08752e-19)
(-3.06401 2.32582 -1.4918e-18)
(-3.0787 2.7512 0)
(-3.02061 2.99228 -3.38e-18)
(-2.89021 3.14151 3.97503e-18)
(-2.80868 3.19984 -1.02791e-18)
(-2.7237 3.26083 -2.61617e-18)
(-2.63967 3.33906 3.7575e-18)
(-3.32367 -0.26859 -8.72423e-19)
(-3.15127 0.164942 1.36533e-18)
(-3.2636 0.771521 0)
(-3.34217 1.44615 8.45269e-19)
(-3.38716 2.0714 -6.35442e-19)
(-3.3267 2.51773 1.25895e-18)
(-3.20935 2.78627 0)
(-3.06541 2.94997 -2.05371e-18)
(-2.92707 3.05193 -5.43897e-18)
(-2.81626 3.10547 3.3519e-18)
(-2.71394 3.16092 3.26296e-18)
(-2.61465 3.22078 -6.38679e-18)
(-3.52453 -0.0402989 1.08352e-18)
(-3.50327 0.442313 -1.19079e-18)
(-3.60928 1.05504 2.58504e-18)
(-3.62972 1.67761 0)
(-3.56073 2.18486 -5.87859e-18)
(-3.41826 2.5104 5.65459e-18)
(-3.25289 2.71109 3.08676e-18)
(-3.08825 2.83536 2.20699e-18)
(-2.93194 2.91721 0)
(-2.79555 2.9769 0)
(-2.67216 3.03601 0)
(-2.55641 3.09605 -6.78753e-19)
(-3.70063 0.180377 4.83682e-18)
(-3.77349 0.675766 0)
(-3.84073 1.23346 -2.04637e-18)
(-3.79344 1.76501 4.60584e-18)
(-3.65637 2.16543 3.56091e-18)
(-3.47421 2.42152 -7.014e-18)
(-3.28274 2.58783 3.22953e-18)
(-3.09746 2.70216 -1.12892e-17)
(-2.92566 2.78664 -1.57534e-19)
(-2.77275 2.85459 -4.00211e-19)
(-2.63462 2.91855 2.6581e-19)
(-2.50742 2.98115 1.10178e-17)
(-3.86466 0.381488 -6.11146e-18)
(-4.01665 0.850059 3.83934e-18)
(-4.02715 1.33165 -5.89723e-18)
(-3.92765 1.76438 -4.25405e-18)
(-3.7466 2.08409 -7.89907e-18)
(-3.53476 2.30061 -4.21001e-18)
(-3.32037 2.45308 -6.25609e-18)
(-3.11673 2.56667 1.04045e-17)
(-2.92937 2.65678 0)
(-2.76054 2.73316 9.03621e-18)
(-2.60786 2.8035 -1.26642e-17)
(-2.46845 2.87062 4.23602e-18)
(-4.05111 0.56717 -3.04682e-18)
(-4.2603 0.972238 -5.22925e-18)
(-4.20543 1.36243 7.46047e-18)
(-4.06386 1.70485 0)
(-3.84847 1.96818 -4.14164e-18)
(-3.60931 2.16356 6.28729e-18)
(-3.37186 2.3127 -3.09456e-19)
(-3.14799 2.43124 1.16585e-19)
(-2.94234 2.52947 -5.08567e-18)
(-2.75626 2.61431 -9.55584e-18)
(-2.58818 2.6911 4.27318e-18)
(-2.43568 2.7627 -4.31701e-18)
(-4.22493 0.70937 2.15106e-18)
(-4.49745 1.04703 0)
(-4.3696 1.33739 0)
(-4.18588 1.60321 0)
(-3.94012 1.82648 3.42735e-18)
(-3.67612 2.01028 0)
(-3.41708 2.16171 -3.97891e-19)
(-3.1738 2.28824 1.14221e-17)
(-2.9505 2.39593 2.70332e-19)
(-2.74828 2.48964 4.86287e-18)
(-2.56595 2.57325 -4.88528e-18)
(-2.40124 2.64959 1.44081e-17)
(-4.49206 0.82336 7.18805e-20)
(-4.70657 1.03424 7.53499e-18)
(-4.47437 1.22742 -2.30753e-18)
(-4.23117 1.44454 0)
(-3.95716 1.64461 0)
(-3.67595 1.82396 0)
(-3.40536 1.982 0)
(-3.1528 2.11978 6.02997e-18)
(-2.92118 2.23971 -2.30667e-17)
(-2.71111 2.34465 -1.13502e-17)
(-2.52152 2.43724 1.09115e-17)
(-2.3502 2.5202 5.81527e-18)
(-4.56392 0.972829 -6.56502e-18)
(-4.68445 0.940264 -4.35293e-18)
(-4.36735 1.0263 -2.61594e-18)
(-4.06759 1.2089 0)
(-3.7912 1.39937 0)
(-3.52215 1.58446 7.3107e-18)
(-3.26817 1.75609 -1.34874e-17)
(-3.03168 1.91057 2.55929e-17)
(-2.81323 2.04721 1.80692e-17)
(-2.61315 2.16743 1.12925e-17)
(-2.43085 2.27261 -1.09557e-17)
(-2.26454 2.36546 6.26999e-19)
(-4.17961 0.393942 -1.85982e-18)
(-4.10587 0.563284 0)
(-3.79968 0.691104 3.85639e-18)