/*--------------------------------*- C++ -*----------------------------------*\
| =========                 |                                                 |
| \\      /  F ield         | OpenFOAM: The Open Source CFD Toolbox           |
|  \\    /   O peration     | Version:  4.0                                   |
|   \\  /    A nd           | Web:      www.OpenFOAM.org                      |
|    \\/     M anipulation  |                                                 |
\*---------------------------------------------------------------------------*/
FoamFile
{
    version     2.0;
    format      ascii;
    class       volScalarField;
    location    "150";
    object      epsilon;
}
// * * * * * * * * * * * * * * * * * * * * * * * * * * * * * * * * * * * * * //

dimensions      [0 2 -3 0 0 0 0];

internalField   nonuniform List<scalar> 
3072
(
11.5865
9.10292
11.242
10.7828
13.6613
54.9621
148.599
201.041
227.204
247.547
257.451
262.573
32.9529
28.2676
35.0125
69.1337
96.9766
109.416
144.987
160.213
165.278
167.779
168.403
166.33
53.3521
59.6432
81.222
85.4328
96.4371
111.259
127.853
132.562
134.914
135.715
134.15
130.051
64.9689
70.5007
81.9953
84.4331
94.6171
106.875
113.129
115.983
117.162
116.822
114.375
110.167
69.1098
72.8645
81.0714
83.0891
90.5024
99.3312
103.981
106.131
106.847
106.008
103.477
99.4736
62.019
69.0561
77.8368
80.1329
86.242
93.0966
96.9721
98.9411
99.5293
98.6292
96.2408
92.5331
51.6363
59.6423
71.4651
76.4339
82.2529
87.7605
91.2079
93.0972
93.666
92.8698
90.7141
87.3506
42.5447
48.041
63.3135
74.2175
81.2258
85.3203
87.5161
88.5394
88.776
87.9756
85.9932
82.8902
40.0523
42.1078
63.9014
78.2046
85.4429
88.0703
88.4832
87.7982
86.2709
84.3891
82.0738
79.048
43.6374
49.255
83.6621
101.939
105.816
103.151
97.5499
92.4131
88.1346
84.3795
80.5628
76.7198
56.8071
94.2602
154.99
171.593
163.9
145.27
125.601
109.415
97.7358
89.1622
82.6007
77.0926
315.829
265.326
271.635
264.343
239.516
205.922
172.099
142.911
119.615
102.315
89.8867
80.6696
260.183
257.603
251.654
241.734
227.071
209.597
187.942
163.327
133.84
101.267
74.9708
102.823
161.178
155.514
149.151
143.74
140.281
140.74
146.367
156.515
170.218
185.897
211.056
277.079
123.894
116.984
110.289
105.1
102.588
102.878
108.22
120.379
142.737
179.083
236.557
367.704
104.689
98.6932
92.9413
88.3026
85.923
85.7983
90.1015
101.172
123.056
164.364
245.538
434.237
94.3795
88.7345
83.1927
78.5221
75.7782
75.2967
78.7036
88.4941
108.976
150.264
242.308
469.949
87.8376
82.6019
77.3961
72.8808
69.8932
69.0802
71.7268
80.2449
98.9702
138.571
235.548
503.034
83.0869
78.3148
73.5185
69.2513
66.1717
65.0547
67.0228
74.2763
91.1409
127.849
221.297
524.856
79.0372
74.7399
70.3808
66.4168
63.4053
62.1237
63.5259
69.604
84.8332
119.364
210.481
555.309
75.4514
71.5244
67.541
63.8558
60.956
59.6319
60.6431
65.7037
79.4115
112.276
202.564
592.559
72.8261
68.9216
65.0883
61.5521
58.7264
57.4299
58.2187
62.4672
74.6472
105.682
194.863
628.398
72.0905
67.5713
63.461
59.8472
57.05
55.9843
56.7479
60.2753
70.6752
99.4001
188.103
675.916
73.6526
67.9565
63.1054
59.1827
56.4241
55.6623
56.462
59.413
67.3386
91.2917
175.292
755.541
11.2395
8.87039
11.0172
10.5799
13.4018
53.8317
147.25
199.806
226.02
246.399
256.368
261.573
32.5709
27.9116
34.3114
68.0651
96.4391
108.55
144.101
159.491
164.793
167.459
167.463
165.927
52.8224
59.0087
80.6544
84.9402
95.9286
110.705
127.364
132.071
134.471
135.317
133.779
129.794
64.4632
69.9187
81.467
83.9502
94.1261
106.414
112.716
115.602
116.811
116.528
114.126
109.97
68.6576
72.3481
80.5823
82.657
90.0818
98.9478
103.634
105.817
106.56
105.765
103.272
99.3045
61.7582
68.6009
77.3988
79.7586
85.8936
92.7766
96.6822
98.6765
99.2872
98.4181
96.0601
92.3801
51.4718
59.2816
71.0815
76.1014
81.9614
87.5006
90.9705
92.8756
93.4604
92.6863
90.5532
87.2125
42.4882
47.7816
63.0213
73.9638
81.0168
85.1422
87.3545
88.3746
88.617
87.8272
85.8603
82.7741
40.0862
41.9748
63.6688
78
85.2865
87.9457
88.3749
87.7073
86.1807
84.2943
81.9831
78.9663
43.669
49.1623
83.5119
101.829
105.763
103.128
97.5414
92.3917
88.101
84.3491
80.5281
76.686
56.7723
94.1156
154.804
171.514
163.9
145.348
125.712
109.503
97.7867
89.1865
82.6084
77.0913
314.576
264.651
271.154
263.994
239.36
205.894
172.149
143.004
119.719
102.399
89.9456
80.7044
259.269
256.777
250.914
241.174
226.608
209.279
187.701
163.175
133.748
101.26
74.9536
102.817
160.768
155.206
148.9
143.561
140.146
140.649
146.305
156.478
170.211
185.928
211.137
277.162
123.683
116.828
110.168
105.011
102.541
102.86
108.252
120.457
142.854
179.242
236.763
367.945
104.528
98.5653
92.8384
88.2236
85.8823
85.7858
90.1495
101.272
123.211
164.58
245.816
434.653
94.2407
88.6236
83.1072
78.4628
75.7545
75.2998
78.7536
88.5962
109.143
150.518
242.687
470.533
87.7104
82.4984
77.3155
72.8243
69.8668
69.081
71.7679
80.3363
99.128
138.827
235.957
503.776
82.9701
78.2184
73.4419
69.1951
66.1402
65.0495
67.0523
74.3523
91.2809
128.082
221.716
525.703
78.9373
74.656
70.313
66.3654
63.3735
62.1163
63.5462
69.6665
84.9544
119.577
210.863
556.262
75.378
71.4608
67.4887
63.8154
60.9312
59.6295
60.6625
65.7608
79.5249
112.475
202.942
593.639
72.788
68.8848
65.0567
61.528
58.7149
57.4409
58.2481
62.53
74.7627
105.88
195.238
629.617
72.0839
67.5603
63.4504
59.8415
57.0583
56.0196
56.8008
60.3599
70.807
99.6073
188.485
677.389
73.668
67.9626
63.1107
59.1922
56.4502
55.7199
56.5373
59.5217
67.4893
91.5097
175.673
757.366
11.2619
8.89002
11.0233
10.5948
13.488
54.7192
148.589
201.257
227.521
247.942
257.901
263.074
32.6689
28.0186
34.5224
68.5919
97.0603
109.472
145.078
160.454
165.732
168.39
168.371
166.703
53.082
59.4039
81.1724
85.4839
96.5517
111.422
128.066
132.799
135.191
136.004
134.407
130.343
64.8126
70.3938
82.0107
84.5049
94.735
107.047
113.331
116.205
117.401
117.076
114.631
110.427
69.0369
72.8473
81.1168
83.1846
90.6361
99.5048
104.183
106.352
107.082
106.255
103.728
99.7238
62.0615
69.0776
77.9162
80.2521
86.3896
93.2789
97.1822
99.1713
99.7713
98.8801
96.4942
92.7836
51.6998
59.7042
71.5748
76.5739
82.421
87.9589
91.4312
93.3374
93.9171
93.1274
90.9728
87.6053
42.6445
48.1131
63.4427
74.3991
81.4369
85.5534
87.7649
88.7959
89.0389
88.2415
86.2584
83.1499
40.1987
42.2136
64.0521
78.4147
85.6823
88.3246
88.7475
88.0696
86.5441
84.6609
82.342
79.3091
43.8021
49.3894
83.8518
102.184
106.084
103.423
97.8227
92.6837
88.4041
84.6447
80.8234
76.9735
56.9704
94.4018
155.137
171.771
164.093
145.48
125.826
109.646
97.9702
89.3998
82.8383
77.326
315.534
265.235
271.612
264.349
239.551
205.97
172.168
143.012
119.748
102.476
90.064
80.8552
260.708
258.153
252.223
242.329
227.655
210.165
188.462
163.784
134.218
101.56
75.1828
103.133
161.515
155.863
149.506
144.106
140.656
141.132
146.787
156.969
170.716
186.444
211.671
277.873
124.183
117.272
110.574
105.386
102.883
103.183
108.553
120.757
143.181
179.628
237.265
368.774
104.945
98.9442
93.188
88.5487
86.1751
86.0578
90.3855
101.496
123.446
164.872
246.279
435.544
94.6244
88.9721
83.4233
78.749
76.0076
75.5314
78.9576
88.7829
109.326
150.733
243.042
471.395
88.0814
82.8364
77.6216
73.0997
70.1107
69.3012
71.9627
80.5111
99.2932
139.008
236.268
504.624
83.3339
78.5514
73.744
69.4676
66.383
65.2671
67.2462
74.5259
91.4425
128.256
221.958
526.541
79.2879
74.9791
70.6073
66.6319
63.6127
62.3298
63.7395
69.8396
85.1167
119.751
211.134
557.111
75.7026
71.7634
67.7663
64.0682
61.1589
59.8315
60.8474
65.9257
79.676
112.641
203.201
594.498
73.0702
69.1537
65.3067
61.7575
58.9219
57.6212
58.4126
62.6743
74.889
106.017
195.471
630.43
72.3144
67.7853
63.6636
60.0379
57.2319
56.162
56.9256
60.4595
70.8866
99.6938
188.67
678.047
73.8409
68.1405
63.2814
59.3526
56.591
55.8269
56.6253
59.5735
67.5143
91.5289
175.765
757.789
11.2687
8.89372
11.0516
10.6164
13.455
54.1047
147.562
200.041
226.209
246.542
256.465
261.626
32.6508
27.994
34.4517
68.3318
96.6529
108.792
144.33
159.511
164.711
167.409
167.622
165.86
52.8989
59.1851
80.916
85.1827
96.0943
110.815
127.429
132.062
134.448
135.282
133.748
129.709
64.5228
70.1315
81.7017
84.1408
94.2442
106.472
112.727
115.574
116.765
116.458
114.043
109.872
68.6828
72.5679
80.789
82.7808
90.1266
98.9639
103.616
105.769
106.495
105.679
103.176
99.2023
61.7479
68.8026
77.5761
79.8432
85.9129
92.7717
96.6472
98.6171
99.2124
98.3285
95.9623
92.279
51.4375
59.4503
71.2349
76.173
81.9669
87.48
90.9252
92.812
93.3827
92.5973
90.4579
87.1151
42.4347
47.889
63.1416
74.0273
81.0135
85.1013
87.2901
88.2997
88.5325
87.7364
85.7647
82.678
40.0457
42.0339
63.7721
78.0628
85.2794
87.8914
88.2924
87.6084
86.0757
84.1904
81.8803
78.865
43.665
49.2335
83.634
101.91
105.755
103.058
97.4267
92.2657
87.9747
84.2237
80.409
76.5704
56.8503
94.3029
155.096
171.712
163.99
145.304
125.58
109.345
97.6341
89.0443
82.478
76.9699
315.244
265.211
271.72
264.493
239.704
206.055
172.166
142.924
119.59
102.259
89.8123
80.5846
259.294
256.774
250.892
241.102
226.526
209.173
187.6
163.077
133.664
101.178
74.9105
102.756
160.741
155.151
148.835
143.481
140.058
140.554
146.198
156.36
170.076
185.771
210.948
276.938
123.594
116.729
110.065
104.905
102.429
102.742
108.119
120.303
142.676
179.028
236.494
367.564
104.427
98.4622
92.7348
88.118
85.7709
85.6693
90.0183
101.12
123.03
164.354
245.511
434.136
94.1374
88.5213
83.0064
78.3618
75.6491
75.1893
78.629
88.4501
108.963
150.282
242.341
469.904
87.6099
82.4007
77.2207
72.7307
69.7707
68.9796
71.6535
80.2003
98.9571
138.596
235.602
503.048
82.8741
78.1258
73.353
69.1087
66.0528
64.9574
66.9487
74.228
91.122
127.863
221.365
524.895
78.8437
74.5666
70.228
66.2839
63.2928
62.0318
63.4526
69.554
84.8086
119.371
210.52
555.374
75.2821
71.3709
67.4044
63.736
60.854
59.5498
60.5759
65.6576
79.3902
112.281
202.606
592.668
72.6842
68.791
64.9707
61.4482
58.6382
57.3623
58.1642
62.4321
74.6363
105.697
194.912
628.555
71.9757
67.4639
63.363
59.7607
56.9798
55.938
56.7147
60.2624
70.6851
99.4335
188.163
676.201
73.563
67.8694
63.0258
59.1122
56.3698
55.6342
56.4475
59.4225
67.3709
91.3476
175.374
755.938
224.937
237.442
242.843
239.679
231.225
214.36
188.831
163.344
139.077
117.837
100.783
87.6017
116.318
126.059
137.864
149.788
162.371
167.413
163.795
155.028
138.424
121.599
106.05
92.4143
70.5045
76.0319
83.443
92.2539
103.008
113.093
119.787
122.772
120.271
114.245
103.301
91.7422
50.9613
54.8037
59.6276
65.5468
72.8798
81.046
88.3286
94.2942
96.0365
95.0948
91.7606
85.3262
77.5734
69.9318
64.0286
59.7849
57.2857
57.0083
57.6806
59.4766
63.8622
76.9142
114.902
224.808
81.1144
72.2531
65.7158
61.701
59.8796
59.0724
58.689
58.5234
59.2559
63.4818
77.5172
107.723
81.1806
72.8653
67.2493
63.908
61.6068
59.0111
55.8638
52.8686
51.0465
51.3221
55.4855
65.3156
77.4561
71.5462
66.5861
61.4726
55.7495
49.9426
45.3768
42.4261
41.1484
41.3331
43.4968
47.5205
224.81
237.101
242.45
239.316
230.926
214.198
188.763
163.346
139.128
117.902
100.84
87.6453
116.155
125.827
137.569
149.467
162.029
167.176
163.615
154.938
138.439
121.627
106.086
92.4445
70.4008
75.8908
83.2607
92.0382
102.761
112.869
119.593
122.641
120.188
114.221
103.327
91.7634
50.912
54.7242
59.5194
65.4124
72.7199
80.8846
88.1799
94.1741
95.9637
95.0517
91.7427
85.3407
77.6003
69.9483
64.0438
59.8108
57.3394
57.1008
57.7929
59.6104
64.0259
77.1255
115.181
225.47
81.1342
72.2682
65.7412
61.7526
59.9702
59.1966
58.8356
58.68
59.4263
63.6759
77.7601
108.033
81.1982
72.8914
67.3053
64.0045
61.7402
59.1684
56.0298
53.0312
51.2115
51.4915
55.6757
65.5332
77.4987
71.6235
66.709
61.6249
55.9136
50.1014
45.525
42.5656
41.2875
41.4734
43.6464
47.6841
225.183
237.611
242.948
239.762
231.297
214.406
188.865
163.377
139.119
117.903
100.875
87.7133
116.469
126.188
137.974
149.892
162.482
167.505
163.875
155.085
138.457
121.632
106.092
92.4696
70.6281
76.1411
83.538
92.34
103.1
113.187
119.883
122.853
120.337
114.293
103.334
91.7805
51.0836
54.9065
59.7169
65.6267
72.9601
81.1286
88.4146
94.3772
96.1009
95.1478
91.8039
85.3583
77.6996
70.0661
64.1675
59.9271
57.4311
57.1503
57.8179
59.6111
63.9979
77.0772
115.139
225.561
81.1862
72.3396
65.8169
61.8145
59.9984
59.1898
58.797
58.6206
59.3465
63.5804
77.6521
107.948
81.2257
72.9252
67.3271
63.9973
61.6985
59.0909
55.9302
52.9254
51.1021
51.3821
55.5645
65.4278
77.5001
71.6052
66.6535
61.5379
55.8076
49.9907
45.4188
42.4663
41.1916
41.3802
43.5551
47.5951
225.245
237.65
243.018
239.86
231.411
214.543
188.972
163.433
139.135
117.845
100.756
87.5559
116.393
126.106
137.9
149.843
162.469
167.544
163.927
155.144
138.501
121.648
106.069
92.4062
70.5314
76.0456
83.4443
92.2553
103.033
113.151
119.873
122.875
120.367
114.321
103.341
91.754
51
54.8259
59.6391
65.5533
72.8947
81.0801
88.3857
94.3725
96.1146
95.1703
91.825
85.3629
77.5154
69.8694
63.9683
59.734
57.2559
57.0088
57.6968
59.5086
63.9117
76.984
114.974
225.065
81.0859
72.2147
65.6794
61.6789
59.883
59.0994
58.7332
58.5744
59.3127
63.5456
77.5894
107.795
81.1766
72.8545
67.2475
63.9256
61.6451
59.0641
55.9198
52.9184
51.0884
51.3623
55.5278
65.3437
77.4789
71.5733
66.6302
61.5267
55.8025
49.9841
45.4041
42.4416
41.155
41.3341
43.4921
47.4939
44.8382
48.9259
53.7493
59.3247
65.5703
71.7954
75.949
78.1472
77.8664
75.2452
71.7975
68.6228
40.5631
44.4618
48.8745
53.7181
58.7263
62.468
64.5013
65.1129
63.9731
61.6578
59.3272
56.7188
37.579
41.0804
44.9024
48.9332
52.3618
54.4472
55.5131
55.605
54.5457
52.9614
50.6858
46.6804
35.3236
38.392
41.6189
44.8329
47.0816
48.3793
49.068
49.14
48.4974
47.2053
44.6096
39.9791
65.211
56.3657
46.7828
39.8013
35.5444
33.7884
33.5621
34.0557
35.0616
36.5785
38.8188
41.5651
51.9088
38.8574
30.2609
26.5115
25.7985
26.8086
28.5394
30.2781
31.7899
33.2482
35.0837
37.412
40.5173
26.9079
21.3342
20.1309
21.2577
23.5329
25.9764
28.0354
29.618
30.9761
32.5766
34.6754
33.7942
19.588
16.4591
16.7774
18.8432
21.527
24.0914
26.1592
27.7407
29.1105
30.6783
32.6847
44.7849
48.8585
53.6669
59.2302
65.4672
71.7038
75.878
78.0919
77.8492
75.2583
71.849
68.7184
40.524
44.4161
48.822
53.6601
58.6701
62.4289
64.4738
65.1027
64.0026
61.7216
59.4285
56.8521
37.5565
41.057
44.8755
48.9041
52.3429
54.4438
55.5214
55.634
54.6136
53.0572
50.8001
46.7957
35.321
38.3915
41.6181
44.8329
47.0916
48.4051
49.1073
49.2009
48.5885
47.3089
44.7128
40.0624
65.3586
56.5332
46.9406
39.9365
35.6561
33.8926
33.6667
34.1661
35.1797
36.702
38.9487
41.6998
52.0583
38.9848
30.3546
26.582
25.8612
26.8758
28.6179
30.3703
31.8928
33.3569
35.194
37.5234
40.6176
26.9743
21.3774
20.1659
21.2956
23.5823
26.0419
28.1161
29.7087
31.07
32.6704
34.7663
33.8298
19.6107
16.4754
16.7959
18.8707
21.5691
24.1502
26.2316
27.8204
29.1911
30.7554
32.7583
44.9248
49.0054
53.8235
59.3956
65.6418
71.8615
76.0075
78.1994
77.908
75.2872
71.8425
68.6678
40.6361
44.531
48.9404
53.7808
58.7862
62.5196
64.5486
65.1571
64.0158
61.7041
59.3734
56.7601
37.6459
41.1454
44.9639
48.9913
52.4138
54.4949
55.5593
55.6506
54.5918
53.0052
50.7211
46.711
35.3901
38.457
41.6799
44.8895
47.1338
48.429
49.1167
49.1866
48.5359
47.2313
44.6304
40.0097
65.2681
56.4296
46.8406
39.8489
35.585
33.8248
33.597
34.091
35.1006
36.6229
38.872
41.6287
51.9534
38.9057
30.3006
26.5441
25.8285
26.8378
28.569
30.3084
31.8221
33.284
35.1257
37.4617
40.5484
26.937
21.3595
20.1548
21.282
23.5576
26.0012
28.0599
29.6427
31.0024
32.6068
34.711
33.8196
19.6057
16.4767
16.7967
18.8639
21.5482
24.1118
26.1779
27.758
29.1276
30.6972
32.707
44.8595
48.9455
53.7692
59.3501
65.6065
71.8454
76.0063
78.2066
77.9199
75.2941
71.8424
68.6658
40.5827
44.4852
48.9029
53.7526
58.7694
62.514
64.5479
65.1573
64.0134
61.6962
59.3609
56.7419
37.5988
41.1068
44.9334
48.9705
52.4004
54.4853
55.5509
55.6414
54.5804
52.9911
50.6986
46.6676
35.3472
38.4218
41.652
44.8676
47.1154
48.4126
49.1013
49.1727
48.5251
47.2167
44.5936
39.9304
65.2575
56.4143
46.8189
39.8177
35.545
33.7788
33.5452
34.0343
35.0363
36.5462
38.7755
41.5145
51.9226
38.8655
30.2537
26.4913
25.7709
26.7753
28.5016
30.2375
31.7456
33.1967
35.0169
37.3408
40.486
26.8819
21.3039
20.0966
21.2191
23.49
25.9297
27.9851
29.5625
30.9109
32.4952
34.589
33.7206
19.546
16.422
16.7399
18.8025
21.4823
24.0424
26.1052
27.6793
29.0373
30.5856
32.5868
33.6192
36.3536
39.0862
41.618
43.2349
44.1599
44.6434
44.6366
43.7473
42.0993
40.4004
42.2237
32.3061
34.8669
37.3125
39.3697
40.5928
41.2137
41.2606
40.2449
37.8106
33.1724
21.8264
5.46778
31.1458
33.6735
36.0094
37.7059
38.5649
38.7546
37.7957
35.2314
30.4655
22.2342
7.84719
2.54318
29.86
32.4165
34.669
36.0335
36.6213
36.1821
34.0559
29.8863
23.141
13.3377
4.09287
2.29944
28.2469
30.8326
32.9197
34.0661
34.4534
33.341
30.2288
24.8943
17.3096
8.4805
3.13594
2.2827
26.2168
28.7337
30.6321
31.6735
31.8849
30.2814
26.5703
20.7391
13.3771
6.39107
2.94664
2.2691
23.8346
26.1757
27.8849
28.8565
28.9457
27.127
23.2654
17.556
11.0114
5.62203
3.03744
2.25937
21.2863
23.3703
24.8949
25.7969
25.8258
24.0492
20.4171
15.2518
9.70481
5.452
3.29785
2.09754
18.8646
20.6546
22.0067
22.8263
22.8436
21.2802
18.1177
13.6988
9.08546
5.57838
3.60613
1.83983
17.0459
18.5524
19.7785
20.5028
20.5351
19.2329
16.6214
12.9579
9.0581
5.96047
3.92929
1.44076
17.1446
18.5378
19.7288
20.4517
20.4921
19.3371
17.0173
13.7866
10.1209
6.87416
4.26984
0.943936
29.6535
31.9041
33.7692
34.788
35.0241
33.4097
29.9363
25.0331
18.2279
10.8362
5.32922
1.4082
40.1739
15.3046
13.5434
14.7763
17.1607
19.8602
22.3337
24.3506
25.9808
27.4753
29.1446
31.1639
22.6772
11.9975
11.6348
13.3032
15.706
18.2601
20.5804
22.5472
24.2635
25.9375
27.7847
29.9075
17.524
10.0007
10.2391
12.0271
14.3196
16.6746
18.828
20.7443
22.5427
24.3898
26.4261
28.6989
14.135
8.50188
9.06013
10.831
12.9694
15.1151
17.0988
18.948
20.7883
22.7521
24.9316
27.3356
11.4245
7.2206
7.97568
9.68619
11.6635
13.6057
15.4178
17.1721
18.9941
20.9905
23.2235
25.6822
9.10936
6.05421
6.95438
8.59447
10.4183
12.1692
13.8095
15.44
17.1815
19.12
21.3015
23.7064
7.06176
4.97572
5.99462
7.56442
9.24849
10.8261
12.3009
13.7885
15.4004
17.2048
19.2388
21.4828
5.26287
3.98824
5.10239
6.60345
8.16654
9.59709
10.9254
12.2687
13.7264
15.3499
17.1723
19.1771
3.67172
3.10493
4.28673
5.71966
7.18874
8.51376
9.73466
10.9587
12.2722
13.7099
15.3019
17.0393
2.4132
2.34813
3.57014
4.93531
6.36029
7.68045
8.88879
10.0687
11.2911
12.5834
13.9672
15.4732
1.4227
1.78632
3.11728
4.44493
5.94798
7.40165
8.75387
10.0773
11.4235
12.7811
14.1496
15.6219
1.01651
2.19253
4.13496
5.59299
7.91581
10.6296
13.2763
15.8974
18.6119
21.401
24.1574
26.9993
33.6345
36.3735
39.1052
41.6462
43.2701
44.2091
44.7041
44.7178
43.8397
42.1887
40.4812
42.3014
32.3393
34.9054
37.3522
39.4185
40.6488
41.277
41.3327
40.3256
37.8871
33.232
21.8565
5.47251
31.1901
33.7245
36.0627
37.7659
38.6286
38.8219
37.866
35.2984
30.5186
22.2653
7.8555
2.54129
29.9091
32.4724
34.7274
36.0945
36.6839
36.2444
34.1144
29.9344
23.1719
13.3495
4.0927
2.29621
28.292
30.8847
32.973
34.1203
34.5076
33.3913
30.2712
24.924
17.324
8.48253
3.13348
2.27911
26.2527
28.7757
30.6743
31.716
31.926
30.3165
26.5963
20.7536
13.3808
6.38895
2.94376
2.26531
23.8566
26.2028
27.9121
28.8844
28.9714
27.1465
23.277
17.5593
11.0089
5.61792
3.0345
2.25534
21.2939
23.3814
24.9065
25.8095
25.8362
24.0547
20.417
15.2472
9.69853
5.44695
3.29471
2.09331
18.8579
20.6509
22.0038
22.8247
22.8406
21.2741
18.1084
13.6887
9.0766
5.5724
3.60255
1.83631
17.0268
18.5362
19.7633
20.4891
20.5215
19.2174
16.6052
12.9435
9.0471
5.95341
3.92501
1.43802
17.1085
18.5074
19.7005
20.4254
20.4686
19.3135
16.9947
13.7676
10.107
6.86504
4.26419
0.942267
29.556
31.8222
33.6922
34.7199
34.9719
33.3569
29.8874
24.9915
18.1968
10.8183
5.32093
1.40626
40.155
15.3043
13.5477
14.7887
17.1849
19.8995
22.3884
24.4164
26.0509
27.5433
29.2082
31.2212
22.6437
11.9906
11.6362
13.3146
15.7298
18.2983
20.6323
22.6078
24.3257
25.9958
27.8359
29.9522
17.4989
9.9939
10.2415
12.0395
14.3442
16.7125
18.8778
20.8009
22.5994
24.4409
26.4696
28.7332
14.1175
8.4975
9.06431
10.8449
12.9949
15.1529
17.1473
19.0023
20.8419
22.7998
24.9701
27.3643
11.4129
7.21859
7.98155
9.70143
11.6899
13.6435
15.4655
17.2252
19.0467
21.0375
23.2616
25.7088
9.10088
6.05386
6.96147
8.61061
10.4451
12.207
13.8566
15.4928
17.2346
19.1685
21.3413
23.7351
7.05607
4.97636
6.00231
7.58086
9.27541
10.8637
12.3476
13.8414
15.4546
17.2559
19.2828
21.5159
5.25908
3.98922
5.11005
6.61954
8.19312
9.63431
10.9719
12.3218
13.782
15.4039
17.2205
19.2161
3.66955
3.1057
4.29369
5.7346
7.21453
8.55061
9.7812
11.0126
12.3294
13.7666
15.3545
17.0839
2.41082
2.34811
3.57571
4.94808
6.38487
7.71759
8.93692
10.1243
11.351
12.6437
14.0243
15.5237
1.42093
1.78574
3.12051
4.45448
5.9717
7.44064
8.80693
10.1411
11.4932
12.8519
14.2178
15.6839
1.01557
2.18918
4.1319
5.59671
7.94528
10.6885
13.3653
16.0112
18.7433
21.5409
24.2973
27.1316
33.6872
36.4212
39.1496
41.6765
43.2905
44.2115
44.691
44.6715
43.7638
42.101
40.4079
42.2903
32.3768
34.937
37.3783
39.4289
40.6467
41.2623
41.2974
40.2621
37.8088
33.1608
21.8331
5.48164
31.2164
33.7429
36.072
37.7587
38.6117
38.7924
37.8168
35.2359
30.459
22.234
7.86296
2.5468
29.9273
32.4807
34.7216
36.0749
36.6559
36.2031
34.0631
29.8837
23.138
13.3486
4.10066
2.30011
28.3069
30.8869
32.9593
34.0939
34.4716
33.345
30.2238
24.8875
17.3095
8.49118
3.13771
2.28242
26.268
28.7758
30.6569
31.6881
31.8864
30.2701
26.5548
20.7278
13.3756
6.39545
2.9454
2.26774
23.8766
26.206
27.8977
28.859
28.9326
27.1036
23.2415
17.5397
11.0057
5.61967
3.03251
2.25667
21.3204
23.3907
24.8989
25.7908
25.8027
24.0178
20.3875
15.2305
9.69407
5.44497
3.2901
2.09313
18.8913
20.6688
22.0057
22.8149
22.8166
21.2447
18.0859
13.6732
9.0704
5.56717
3.59606
1.83578
17.067
18.5632
19.7757
20.4897
20.5075
19.198
16.5884
12.9299
9.03907
5.94609
3.91775
1.43696
17.1602
18.5474
19.7274
20.4377
20.4646
19.3021
16.9834
13.7554
10.097
6.85633
4.25714
0.9413
29.6717
31.9207
33.7723
34.7687
34.9803
33.3548
29.8767
24.9769
18.182
10.808
5.31365
1.40367
40.2157
15.3186
13.5579
14.7931
17.1788
19.8783
22.3501
24.3642
25.9917
27.4845
29.1538
31.1744
22.6984
12.0101
11.6481
13.3183
15.722
18.2755
20.5933
22.5566
24.2694
25.9406
27.7867
29.9091
17.5435
10.0127
10.2517
12.0409
14.3339
16.6877
18.8382
20.7505
22.545
24.389
26.4234
28.6946
14.1535
8.51339
9.07192
10.8437
12.9823
15.1265
17.1071
18.9523
20.7886
22.7492
24.9266
27.3285
11.4418
7.23125
7.98661
9.69789
11.6753
13.6159
15.425
17.1753
18.9936
20.9872
23.2181
25.6747
9.12412
6.06369
6.9644
8.60533
10.4292
12.1787
13.816
15.443
17.1812
19.1171
21.2969
23.7002
7.07405
4.98388
6.00371
7.57449
9.25879
10.8351
12.3072
13.7917
15.4007
17.203
19.2358
21.4786
5.2722
3.99499
5.11051
6.61278
8.17631
9.60576
10.9318
12.2723
13.7275
15.3494
17.171
19.1753
3.67863
3.11031
4.29387
5.72816
7.19801
8.52217
9.74126
10.9628
12.2743
13.7105
15.3023
17.0394
2.41776
2.35228
3.5762
4.94288
6.36884
7.68867
8.89565
10.0734
11.2942
12.5852
13.9689
15.4749
1.42542
1.78947
3.12249
4.45155
5.95595
7.40973
8.7611
10.0828
11.4279
12.7844
14.1527
15.6252
1.01841
2.19642
4.14129
5.60009
7.92451
10.6397
13.286
15.9058
18.6195
21.4086
24.1653
27.0081
33.6465
36.3863
39.119
41.6501
43.2661
44.1904
44.6733
44.6613
43.7571
42.0799
40.3529
42.1384
32.34
34.9038
37.3474
39.401
40.6218
41.2408
41.2827
40.2544
37.7995
33.1326
21.7726
5.45277
31.1834
33.7132
36.0445
37.7349
38.5903
38.7746
37.8043
35.2235
30.4369
22.1878
7.82346
2.53425
29.899
32.4569
34.7023
36.0584
36.6412
36.1906
34.0497
29.8633
23.103
13.2982
4.07814
2.29104
28.2813
30.8686
32.947
34.0852
34.465
33.3372
30.2096
24.8611
17.2698
8.45046
3.12454
2.27428
26.2436
28.7616
30.6509
31.6857
31.8871
30.2671
26.5418
20.7011
13.3399
6.36809
2.93647
2.26073
23.8504
26.1922
27.894
28.8605
28.9385
27.1047
23.2314
17.5172
10.9784
5.60312
3.02808
2.25101
21.2908
23.3748
24.8942
25.7924
25.8103
24.0216
20.3806
15.2143
9.67549
5.43502
3.28839
2.08975
18.8573
20.6481
21.9966
22.8135
22.8217
21.2492
18.0804
13.6633
9.05853
5.56216
3.59603
1.83304
17.0281
18.536
19.7598
20.482
20.5078
19.1989
16.5834
12.9233
9.03173
5.94359
3.91802
1.43544
17.1115
18.5091
19.6995
20.4202
20.4571
19.2973
16.9754
13.749
10.0916
6.85408
4.25649
0.940505
29.5637
31.8277
33.6935
34.7123
34.9525
33.3298
29.8564
24.9603
18.1672
10.7999
5.31116
1.40358
40.0419
15.2601
13.5073
14.7405
17.122
19.8175
22.2863
24.2968
25.9172
27.3966
29.045
31.055
22.5966
11.9605
11.6032
13.2712
15.6714
18.2216
20.5369
22.4962
24.2005
25.8573
27.6798
29.7901
17.4657
9.97084
10.2128
11.9998
14.29
16.6414
18.7898
20.698
22.4835
24.3117
26.322
28.5774
14.0906
8.47819
9.03868
10.8085
12.945
15.0878
17.067
18.9083
20.7357
22.6808
24.833
27.2177
11.3906
7.20186
7.95849
9.66823
11.6442
13.5843
15.3928
17.1401
18.9504
20.9296
23.1372
25.5757
9.08261
6.03935
6.94079
8.58049
10.4037
12.1536
13.7912
15.4162
17.1479
19.0721
21.2312
23.618
7.04127
4.96394
5.98393
7.55374
9.23801
10.8156
12.2889
13.7726
15.3771
17.1708
19.1874
21.416
5.24731
3.97886
5.09391
6.59529
8.15941
9.59097
10.919
12.2599
13.7127
15.3294
17.1392
19.1333
3.66082
3.09736
4.27969
5.71309
7.18395
8.51109
9.7327
10.9562
12.267
13.7016
15.286
17.0173
2.40531
2.34172
3.56373
4.92903
6.35645
7.67987
8.89041
10.0712
11.2936
12.5859
13.9667
15.4699
1.41777
1.78074
3.11008
4.43708
5.94352
7.40143
8.75726
10.0846
11.4341
12.7958
14.1651
15.6426
1.01359
2.18373
4.1198
5.57445
7.90229
10.6222
13.2772
15.9098
18.6363
21.4416
24.2111
27.078
)
;

boundaryField
{
    rotor
    {
        Cmu             0.09;
        kappa           0.41;
        E               9.8;
        type            epsilonWallFunction;
        value           nonuniform List<scalar> 
192
(
11.5865
9.10292
11.242
10.7828
13.6613
54.9621
148.599
201.041
227.204
247.547
257.451
262.573
260.183
257.603
251.654
241.734
227.071
209.597
187.942
163.327
133.84
101.267
74.9708
102.823
11.2395
8.87039
11.0172
10.5799
13.4018
53.8317
147.25
199.806
226.02
246.399
256.368
261.573
259.269
256.777
250.914
241.174
226.608
209.279
187.701
163.175
133.748
101.26
74.9536
102.817
11.2619
8.89002
11.0233
10.5948
13.488
54.7192
148.589
201.257
227.521
247.942
257.901
263.074
260.708
258.153
252.223
242.329
227.655
210.165
188.462
163.784
134.218
101.56
75.1828
103.133
11.2687
8.89372
11.0516
10.6164
13.455
54.1047
147.562
200.041
226.209
246.542
256.465
261.626
259.294
256.774
250.892
241.102
226.526
209.173
187.6
163.077
133.664
101.178
74.9105
102.756
11.5865
32.9529
53.3521
64.9689
69.1098
62.019
51.6363
42.5447
40.0523
43.6374
56.8071
315.829
102.756
276.938
367.564
434.136
469.904
503.048
524.895
555.374
592.668
628.555
676.201
755.938
11.2395
32.5709
52.8224
64.4632
68.6576
61.7582
51.4718
42.4882
40.0862
43.669
56.7723
314.576
102.823
277.079
367.704
434.237
469.949
503.034
524.856
555.309
592.559
628.398
675.916
755.541
11.2619
32.6689
53.082
64.8126
69.0369
62.0615
51.6998
42.6445
40.1987
43.8021
56.9704
315.534
102.817
277.162
367.945
434.653
470.533
503.776
525.703
556.262
593.639
629.617
677.389
757.366
11.2687
32.6508
52.8989
64.5228
68.6828
61.7479
51.4375
42.4347
40.0457
43.665
56.8503
315.244
103.133
277.873
368.774
435.544
471.395
504.624
526.541
557.111
594.498
630.43
678.047
757.789
)
;
    }
    stator
    {
        Cmu             0.09;
        kappa           0.41;
        E               9.8;
        type            epsilonWallFunction;
        value           nonuniform List<scalar> 
192
(
29.6535
31.9041
33.7692
34.788
35.0241
33.4097
29.9363
25.0331
18.2279
10.8362
5.32922
1.4082
1.01651
2.19253
4.13496
5.59299
7.91581
10.6296
13.2763
15.8974
18.6119
21.401
24.1574
26.9993
29.556
31.8222
33.6922
34.7199
34.9719
33.3569
29.8874
24.9915
18.1968
10.8183
5.32093
1.40626
1.01557
2.18918
4.1319
5.59671
7.94528
10.6885
13.3653
16.0112
18.7433
21.5409
24.2973
27.1316
29.6717
31.9207
33.7723
34.7687
34.9803
33.3548
29.8767
24.9769
18.182
10.808
5.31365
1.40367
1.01841
2.19642
4.14129
5.60009
7.92451
10.6397
13.286
15.9058
18.6195
21.4086
24.1653
27.0081
29.5637
31.8277
33.6935
34.7123
34.9525
33.3298
29.8564
24.9603
18.1672
10.7999
5.31116
1.40358
1.01359
2.18373
4.1198
5.57445
7.90229
10.6222
13.2772
15.9098
18.6363
21.4416
24.2111
27.078
40.1739
22.6772
17.524
14.135
11.4245
9.10936
7.06176
5.26287
3.67172
2.4132
1.4227
1.01651
42.2237
5.46778
2.54318
2.29944
2.2827
2.2691
2.25937
2.09754
1.83983
1.44076
0.943936
1.4082
40.155
22.6437
17.4989
14.1175
11.4129
9.10088
7.05607
5.25908
3.66955
2.41082
1.42093
1.01557
42.3014
5.47251
2.54129
2.29621
2.27911
2.26531
2.25534
2.09331
1.83631
1.43802
0.942267
1.40626
40.2157
22.6984
17.5435
14.1535
11.4418
9.12412
7.07405
5.2722
3.67863
2.41776
1.42542
1.01841
42.2903
5.48164
2.5468
2.30011
2.28242
2.26774
2.25667
2.09313
1.83578
1.43696
0.9413
1.40367
40.0419
22.5966
17.4657
14.0906
11.3906
9.08261
7.04127
5.24731
3.66082
2.40531
1.41777
1.01359
42.1384
5.45277
2.53425
2.29104
2.27428
2.26073
2.25101
2.08975
1.83304
1.43544
0.940505
1.40358
)
;
    }
    front
    {
        type            empty;
    }
    back
    {
        type            empty;
    }
}


// ************************************************************************* //
