/*--------------------------------*- C++ -*----------------------------------*\
| =========                 |                                                 |
| \\      /  F ield         | OpenFOAM: The Open Source CFD Toolbox           |
|  \\    /   O peration     | Version:  4.0                                   |
|   \\  /    A nd           | Web:      www.OpenFOAM.org                      |
|    \\/     M anipulation  |                                                 |
\*---------------------------------------------------------------------------*/
FoamFile
{
    version     2.0;
    format      ascii;
    class       volScalarField;
    location    "150";
    object      k;
}
// * * * * * * * * * * * * * * * * * * * * * * * * * * * * * * * * * * * * * //

dimensions      [0 2 -2 0 0 0 0];

internalField   nonuniform List<scalar> 
3072
(
0.0732471
0.093692
0.10794
0.104966
0.122551
0.308274
0.60185
0.737363
0.800371
0.847586
0.870043
0.881522
0.158845
0.239047
0.289438
0.355415
0.448252
0.552341
0.766329
0.946626
1.13347
1.3064
1.45093
1.56504
0.233612
0.477062
0.539735
0.533956
0.645089
0.850921
1.10538
1.33401
1.53363
1.69604
1.81361
1.87547
0.282914
0.574177
0.637666
0.666355
0.846901
1.08441
1.32911
1.53939
1.7157
1.85089
1.94153
1.98155
0.311425
0.656922
0.734792
0.7978
0.990189
1.22817
1.45363
1.64586
1.80213
1.91952
1.99483
2.02653
0.304852
0.675991
0.797244
0.889725
1.07857
1.29984
1.50557
1.68195
1.82299
1.92831
1.99561
2.02489
0.283083
0.656837
0.817387
0.94336
1.12358
1.322
1.50909
1.67225
1.80392
1.90165
1.96409
1.99241
0.260799
0.616582
0.821992
0.979943
1.15478
1.33169
1.49674
1.63691
1.75224
1.83947
1.89705
1.92572
0.261799
0.614638
0.872608
1.07448
1.23705
1.37514
1.50182
1.60379
1.69108
1.76259
1.81267
1.83957
0.288708
0.703937
1.10064
1.3452
1.46397
1.52868
1.5776
1.62607
1.66921
1.7048
1.73437
1.75128
0.357463
0.988016
1.61559
1.8927
1.92286
1.88071
1.8011
1.74039
1.71136
1.69947
1.68931
1.68138
1.15959
1.6369
2.21172
2.41696
2.39824
2.28576
2.12002
1.96378
1.83589
1.74653
1.69168
1.6465
0.876068
0.870157
0.856533
0.833713
0.799477
0.757778
0.704516
0.641527
0.561721
0.466429
0.381473
0.314452
1.62996
1.64579
1.63016
1.57101
1.50563
1.43675
1.36461
1.28577
1.1848
0.995022
0.751328
0.656201
1.88952
1.86997
1.82169
1.75883
1.69356
1.63225
1.57548
1.51951
1.44979
1.31882
1.0182
0.847351
1.98768
1.96319
1.9171
1.85957
1.80087
1.75003
1.71096
1.67944
1.64829
1.58044
1.34524
1.00583
2.02838
2.00102
1.95441
1.8988
1.84514
1.80431
1.78331
1.77788
1.78027
1.7624
1.60227
1.12079
2.02572
2.00017
1.95707
1.9062
1.85798
1.82509
1.81509
1.83448
1.87955
1.91096
1.84476
1.23434
1.99281
1.97011
1.93144
1.88638
1.84528
1.82032
1.82086
1.85726
1.9371
2.02135
2.03399
1.33164
1.92877
1.91214
1.87957
1.84028
1.80568
1.78815
1.79882
1.85202
1.95956
2.10051
2.18324
1.44544
1.84463
1.83291
1.80653
1.77155
1.74207
1.73125
1.74843
1.81494
1.95507
2.15329
2.29542
1.57343
1.75306
1.74245
1.71935
1.68712
1.66163
1.65629
1.67722
1.75217
1.91695
2.17479
2.42257
1.70171
1.67065
1.65351
1.62742
1.59711
1.57629
1.57567
1.6007
1.67929
1.85367
2.17183
2.57595
1.85399
1.61047
1.5777
1.54441
1.51497
1.50239
1.50782
1.53961
1.61709
1.7748
2.10904
2.68771
2.06914
0.0720368
0.0921679
0.106538
0.103677
0.121016
0.3039
0.598113
0.734385
0.797646
0.845021
0.867666
0.879353
0.157652
0.237057
0.285848
0.351605
0.44653
0.549374
0.761964
0.941976
1.12874
1.30156
1.44632
1.56056
0.232082
0.473946
0.537251
0.53153
0.641872
0.846354
1.10015
1.32867
1.52857
1.69122
1.80918
1.87165
0.281417
0.571176
0.634725
0.663291
0.842891
1.07957
1.32407
1.53445
1.71104
1.84654
1.93775
1.97829
0.310037
0.654072
0.731847
0.794676
0.986263
1.2237
1.44916
1.64157
1.79811
1.91583
1.99169
2.02391
0.303952
0.673771
0.794484
0.886839
1.07517
1.29615
1.50198
1.67861
1.81985
1.92542
1.9932
2.02291
0.282433
0.654951
0.814945
0.941007
1.12102
1.31938
1.50668
1.66967
1.80142
1.89938
1.96219
1.991
0.260607
0.615329
0.820093
0.978215
1.15302
1.32997
1.49539
1.63556
1.75085
1.83819
1.896
1.92497
0.261891
0.614093
0.8717
1.07389
1.23663
1.37478
1.5015
1.60377
1.69091
1.76238
1.81254
1.8396
0.288848
0.704009
1.10068
1.34601
1.46519
1.52992
1.57881
1.62707
1.67029
1.70573
1.73522
1.75212
0.357298
0.987426
1.61493
1.89277
1.92365
1.88267
1.80345
1.74256
1.71319
1.70128
1.69097
1.68291
1.15668
1.6335
2.2086
2.4153
2.39721
2.28617
2.12135
1.96573
1.83811
1.74867
1.69371
1.64839
0.874083
0.868368
0.85493
0.832491
0.798451
0.75706
0.703952
0.641163
0.561492
0.466431
0.381432
0.314454
1.62592
1.64264
1.6276
1.56899
1.50408
1.43568
1.36396
1.28547
1.18472
0.994966
0.751443
0.656363
1.88608
1.86726
1.81948
1.75707
1.69227
1.63145
1.57518
1.51963
1.45024
1.31946
1.01873
0.847762
1.98475
1.96081
1.91521
1.85818
1.79998
1.74968
1.71108
1.68006
1.64932
1.58169
1.34634
1.00651
2.02609
1.99916
1.953
1.89786
1.8447
1.80448
1.78398
1.77898
1.78181
1.76424
1.60393
1.12175
2.02408
1.99883
1.95612
1.90568
1.85792
1.82561
1.81613
1.83609
1.88162
1.9133
1.84689
1.23556
1.99175
1.96935
1.93102
1.88634
1.84567
1.82118
1.82221
1.85918
1.93957
2.02403
2.03654
1.33307
1.92832
1.91196
1.87972
1.84075
1.80653
1.78944
1.80056
1.85431
1.9623
2.10353
2.18608
1.44708
1.84488
1.83336
1.80725
1.77256
1.74343
1.733
1.75056
1.81762
1.95826
2.15675
2.29854
1.57534
1.75399
1.74351
1.72061
1.68865
1.66357
1.65854
1.67984
1.75529
1.9206
2.1786
2.42597
1.70391
1.67207
1.65497
1.62909
1.59908
1.57892
1.57862
1.60391
1.68291
1.85787
2.17625
2.57981
1.85669
1.61225
1.57947
1.54633
1.51724
1.5052
1.51095
1.54326
1.62129
1.77941
2.11406
2.69214
2.07256
0.072162
0.0923187
0.106605
0.103779
0.121533
0.307316
0.601847
0.737878
0.80113
0.848497
0.871074
0.882665
0.158017
0.237538
0.286492
0.352829
0.448224
0.552453
0.766374
0.947064
1.13421
1.30746
1.45241
1.56676
0.232862
0.475831
0.539401
0.533821
0.645327
0.850909
1.10582
1.33496
1.53512
1.69798
1.81597
1.87816
0.282426
0.573579
0.637461
0.666395
0.847036
1.08472
1.33004
1.54093
1.71781
1.85346
1.94453
1.98484
0.311146
0.656783
0.73489
0.798041
0.990578
1.22898
1.45515
1.64804
1.80488
1.92272
1.99842
2.0304
0.304929
0.676493
0.797745
0.890346
1.07944
1.30129
1.50777
1.68493
1.82651
1.93223
1.99983
2.02927
0.283259
0.657545
0.818306
0.944549
1.12511
1.32413
1.51202
1.6757
1.80788
1.90601
1.96876
1.99733
0.261218
0.617636
0.823247
0.981586
1.15679
1.33429
1.50015
1.641
1.7568
1.84439
1.90225
1.93111
0.262404
0.616031
0.87445
1.07686
1.2398
1.37833
1.50555
1.60821
1.69594
1.76779
1.81812
1.8452
0.289444
0.705756
1.10305
1.3483
1.46738
1.53227
1.58156
1.63049
1.67404
1.70999
1.73982
1.75693
0.358133
0.989559
1.6174
1.89481
1.92525
1.88371
1.80454
1.74428
1.71572
1.70413
1.69432
1.68669
1.15895
1.63659
2.21189
2.41765
2.39907
2.28705
2.12183
1.96619
1.83898
1.75029
1.69575
1.65098
0.877266
0.87142
0.857851
0.835104
0.800871
0.759166
0.705832
0.642736
0.56279
0.467337
0.382196
0.315085
1.63195
1.64818
1.63276
1.57372
1.50843
1.4396
1.36745
1.28852
1.18733
0.997113
0.752844
0.657459
1.89238
1.87305
1.82486
1.76205
1.69685
1.6356
1.5789
1.52291
1.45305
1.32174
1.02039
0.849002
1.9911
1.96675
1.92074
1.86327
1.80462
1.75384
1.71479
1.68332
1.65211
1.58403
1.34817
1.00785
2.03239
2.00512
1.95855
1.90297
1.84934
1.80855
1.78756
1.78215
1.78453
1.76651
1.6058
1.1231
2.03023
2.00475
1.96165
1.91076
1.86251
1.82965
1.81971
1.83916
1.88423
1.91555
1.84889
1.23695
1.99787
1.97519
1.93646
1.89133
1.85017
1.8252
1.82574
1.86221
1.94215
2.02636
2.03865
1.3345
1.93423
1.91758
1.88494
1.84555
1.81087
1.7933
1.80398
1.85724
1.96485
2.10587
2.18825
1.44858
1.85034
1.8386
1.81212
1.77703
1.74745
1.73659
1.75378
1.82035
1.9606
2.15895
2.30082
1.57687
1.75883
1.74822
1.725
1.69264
1.66707
1.66169
1.68264
1.75765
1.92256
2.18058
2.42824
1.70538
1.67625
1.65913
1.6329
1.60249
1.58162
1.58098
1.60604
1.68467
1.85918
2.17761
2.58183
1.8579
1.61526
1.58262
1.54936
1.51995
1.50741
1.51284
1.54457
1.62204
1.7799
2.11448
2.6935
2.07332
0.0721647
0.0923324
0.10676
0.103913
0.121334
0.304963
0.598969
0.73495
0.798082
0.84533
0.867837
0.879454
0.157917
0.237589
0.286743
0.352765
0.447208
0.54998
0.762927
0.94286
1.1295
1.30211
1.44661
1.56078
0.232325
0.474825
0.538483
0.532671
0.642342
0.847073
1.1009
1.32923
1.52884
1.69121
1.80891
1.87108
0.281605
0.572002
0.635759
0.663722
0.843121
1.08002
1.32438
1.5345
1.71082
1.84608
1.93698
1.97727
0.310127
0.654689
0.732504
0.794663
0.986267
1.2238
1.44908
1.64122
1.79751
1.91501
1.99059
2.02255
0.30392
0.674187
0.794882
0.886555
1.07487
1.29589
1.50152
1.67787
1.81888
1.92424
1.99174
2.02118
0.282311
0.655278
0.815241
0.940572
1.1204
1.31869
1.50579
1.66867
1.80024
1.89799
1.96057
1.98909
0.260397
0.615478
0.820187
0.977619
1.15211
1.32893
1.49414
1.63416
1.74931
1.83648
1.89412
1.92292
0.261721
0.614105
0.871519
1.07308
1.23533
1.37322
1.49985
1.60184
1.6889
1.76028
1.81035
1.83733
0.288836
0.704183
1.10069
1.34527
1.46369
1.52789
1.57658
1.62472
1.66777
1.70319
1.73268
1.74959
0.357622
0.98852
1.61638
1.89353
1.92349
1.881
1.80104
1.73987
1.71046
1.69847
1.68819
1.68019
1.15824
1.63594
2.21168
2.41757
2.39884
2.28631
2.1203
1.9638
1.83562
1.74597
1.691
1.64571
0.874117
0.86834
0.854858
0.832307
0.798241
0.756789
0.703688
0.640895
0.561248
0.466171
0.381281
0.314323
1.62589
1.64228
1.62704
1.56827
1.50325
1.43477
1.36299
1.28451
1.18384
0.994295
0.750972
0.656
1.88535
1.86628
1.81837
1.75587
1.69099
1.63008
1.57374
1.51817
1.44883
1.31818
1.01781
0.847166
1.9836
1.95948
1.91376
1.85661
1.79831
1.74791
1.70925
1.67817
1.64744
1.57995
1.34496
1.0057
2.02459
1.99752
1.95123
1.89599
1.84271
1.80237
1.78179
1.77673
1.77954
1.76207
1.60212
1.12074
2.02222
1.99693
1.95414
1.9036
1.85574
1.82329
1.81369
1.83353
1.87903
1.91078
1.84472
1.23437
1.98972
1.96726
1.92885
1.88409
1.84332
1.81871
1.81962
1.85644
1.93671
2.02125
2.03407
1.33171
1.92615
1.90971
1.87739
1.83835
1.80404
1.78683
1.79781
1.8514
1.95927
2.10051
2.1834
1.44555
1.84252
1.83094
1.80477
1.77003
1.74081
1.73027
1.7477
1.81457
1.95504
2.15349
2.29565
1.57363
1.75145
1.74095
1.71801
1.68599
1.66084
1.65571
1.67687
1.75211
1.91721
2.17519
2.42291
1.702
1.66943
1.65235
1.62643
1.59634
1.57606
1.57567
1.60081
1.6796
1.85432
2.17262
2.57648
1.85452
1.60963
1.57688
1.5437
1.51447
1.50226
1.5079
1.54003
1.61788
1.77582
2.11025
2.6886
2.06996
2.49098
2.51886
2.56063
2.55983
2.52513
2.4379
2.29323
2.13207
1.97155
1.83311
1.72312
1.64115
2.15863
2.15828
2.18243
2.22658
2.25716
2.24982
2.20655
2.1147
1.98972
1.86396
1.7453
1.64217
1.81741
1.82726
1.8499
1.88724
1.92736
1.9579
1.96466
1.94726
1.90542
1.82342
1.72332
1.62311
1.56261
1.58908
1.618
1.6527
1.68899
1.72342
1.74333
1.74407
1.72926
1.69801
1.64146
1.55682
1.57683
1.52515
1.4825
1.45626
1.4561
1.47239
1.51235
1.57922
1.69195
1.94869
2.52541
2.5445
1.5573
1.49123
1.44545
1.43275
1.44286
1.46865
1.50306
1.54396
1.60102
1.73626
2.08707
2.18402
1.53369
1.47036
1.43918
1.44026
1.45209
1.46281
1.46587
1.46986
1.48587
1.53678
1.70409
1.8052
1.49607
1.47103
1.45418
1.43362
1.40815
1.37949
1.3585
1.35033
1.35866
1.38263
1.4617
1.52918
2.48675
2.51442
2.55626
2.55613
2.52208
2.43633
2.29278
2.13267
1.97289
1.83486
1.72502
1.64302
2.15466
2.15395
2.17796
2.22223
2.2536
2.24714
2.20466
2.11428
1.98995
1.86487
1.74661
1.64369
1.81404
1.82359
1.84607
1.88333
1.92375
1.95479
1.96227
1.94543
1.90459
1.8238
1.72422
1.62426
1.56005
1.58619
1.61494
1.64956
1.68601
1.72065
1.74252
1.74182
1.72792
1.69735
1.6419
1.55773
1.57864
1.52697
1.48451
1.45886
1.45904
1.47588
1.51647
1.58371
1.69679
1.95392
2.5307
2.54938
1.55887
1.4929
1.44751
1.43553
1.44607
1.47253
1.50738
1.5485
1.60577
1.74134
2.09251
2.18918
1.53498
1.47198
1.44157
1.44309
1.4556
1.46685
1.47011
1.47416
1.49024
1.54135
1.70911
1.81021
1.49752
1.47325
1.45688
1.43674
1.41161
1.38328
1.36228
1.35419
1.36258
1.38673
1.46612
1.53366
2.49111
2.51882
2.56054
2.5599
2.52529
2.43831
2.29393
2.13318
1.97323
1.8354
1.72609
1.64457
2.1594
2.15885
2.18279
2.2268
2.25741
2.25018
2.20701
2.11544
1.99069
1.86528
1.74706
1.64456
1.81869
1.82819
1.85054
1.88764
1.92767
1.95826
1.96509
1.94777
1.90611
1.82441
1.72462
1.62469
1.56433
1.59031
1.61887
1.65332
1.68946
1.72387
1.7438
1.74457
1.72981
1.69864
1.64236
1.55789
1.58063
1.5292
1.48674
1.46069
1.46055
1.47686
1.51671
1.58347
1.69626
1.9533
2.5305
2.549
1.56008
1.49436
1.44894
1.4365
1.44673
1.47253
1.50671
1.54737
1.60437
1.73978
2.09107
2.18771
1.53563
1.47272
1.44199
1.44319
1.45528
1.46576
1.46862
1.47244
1.48832
1.53936
1.7071
1.80821
1.4976
1.47306
1.45632
1.43582
1.41035
1.38166
1.36053
1.35227
1.36055
1.38459
1.46392
1.53151
2.49063
2.51823
2.55996
2.55947
2.52497
2.43813
2.29347
2.13228
1.97159
1.83295
1.72276
1.64065
2.15789
2.15728
2.18125
2.22546
2.25645
2.24949
2.20641
2.11483
1.98986
1.86403
1.74522
1.64188
1.81677
1.8263
1.84871
1.88595
1.92626
1.95714
1.96429
1.94704
1.90542
1.82356
1.72334
1.62298
1.56232
1.58842
1.61711
1.65171
1.68808
1.72269
1.74428
1.74322
1.72901
1.69797
1.6415
1.55679
1.57625
1.52455
1.48198
1.45607
1.45613
1.47276
1.51316
1.58033
1.69326
1.95019
2.52689
2.54611
1.5569
1.49079
1.44514
1.43281
1.44315
1.46935
1.50409
1.5452
1.60241
1.73783
2.08881
2.18598
1.53344
1.47012
1.43923
1.44052
1.45268
1.4637
1.46691
1.47097
1.48709
1.53814
1.70569
1.80689
1.49606
1.47119
1.45451
1.4341
1.40873
1.38017
1.35919
1.35116
1.35962
1.38372
1.46289
1.53029
1.4143
1.44751
1.48175
1.51575
1.54412
1.56415
1.5706
1.55835
1.53055
1.49182
1.45323
1.43357
1.30043
1.33384
1.36569
1.3919
1.41033
1.41988
1.41764
1.39865
1.37051
1.3404
1.31828
1.30701
1.21577
1.24556
1.27015
1.28767
1.29921
1.30276
1.29457
1.27448
1.2491
1.21902
1.17721
1.1152
1.15195
1.17649
1.19457
1.20639
1.21313
1.21341
1.2013
1.1795
1.14853
1.09419
0.993393
0.835466
1.44114
1.39157
1.30695
1.24666
1.21556
1.21491
1.23306
1.25505
1.27849
1.30553
1.34868
1.38314
1.29151
1.17727
1.08086
1.05254
1.06805
1.11099
1.15759
1.19083
1.21161
1.2276
1.24896
1.2709
1.05858
0.96524
0.915311
0.926786
0.978549
1.04427
1.10186
1.13738
1.15428
1.1631
1.17398
1.18953
0.727594
0.777173
0.791428
0.842127
0.914759
0.989501
1.04882
1.08347
1.09917
1.1063
1.11475
1.12859
1.41188
1.44507
1.4793
1.51352
1.54219
1.56248
1.56961
1.55747
1.53028
1.49226
1.45449
1.43575
1.29843
1.33195
1.36401
1.39049
1.40912
1.41891
1.41721
1.39864
1.37109
1.34169
1.32023
1.30946
1.21421
1.24426
1.2691
1.28688
1.29863
1.30241
1.29475
1.27513
1.25031
1.22076
1.17925
1.11723
1.15088
1.17579
1.19412
1.20614
1.21334
1.21368
1.20202
1.18065
1.15008
1.09596
0.995077
0.836735
1.44373
1.39466
1.30999
1.24955
1.2184
1.21791
1.23629
1.25859
1.28225
1.30944
1.35272
1.387
1.29415
1.17973
1.08289
1.05439
1.06998
1.11328
1.1604
1.19414
1.21521
1.23132
1.25261
1.27432
1.06045
0.96668
0.91642
0.927884
0.979939
1.04619
1.10445
1.14053
1.15775
1.16657
1.17733
1.19257
0.728357
0.777727
0.791909
0.842809
0.915887
0.99124
1.0513
1.08649
1.10246
1.10953
1.11777
1.13132
1.41553
1.4485
1.48253
1.51634
1.5446
1.5646
1.57106
1.55885
1.53116
1.49263
1.45427
1.43497
1.30156
1.33482
1.36649
1.39254
1.41088
1.42039
1.41819
1.39932
1.37135
1.34141
1.3194
1.30819
1.21692
1.24661
1.27105
1.28844
1.2999
1.30343
1.29531
1.27534
1.25007
1.22
1.17812
1.11603
1.15324
1.17767
1.19563
1.20737
1.21404
1.21429
1.20224
1.18048
1.14943
1.09491
0.993989
0.836086
1.4427
1.39337
1.3087
1.24832
1.21719
1.21653
1.23464
1.2566
1.28003
1.30712
1.35041
1.3849
1.2927
1.17861
1.08217
1.05384
1.06938
1.11235
1.15894
1.19214
1.21287
1.22884
1.25022
1.27216
1.05939
0.966118
0.916273
0.927846
0.9797
1.04549
1.10303
1.13849
1.15532
1.16402
1.17484
1.19036
0.728141
0.77774
0.792183
0.843039
0.915787
0.990591
1.04984
1.08437
1.09998
1.10692
1.11525
1.12903
1.41362
1.44679
1.481
1.51512
1.54364
1.56381
1.57064
1.55806
1.53043
1.49179
1.45328
1.43372
1.29968
1.33319
1.36516
1.3915
1.41002
1.41965
1.41754
1.39851
1.37047
1.34042
1.31832
1.307
1.215
1.24498
1.26972
1.28736
1.29896
1.30257
1.29447
1.27442
1.24913
1.21904
1.17708
1.1148
1.15126
1.17602
1.19423
1.20612
1.21291
1.21327
1.20124
1.17951
1.14855
1.09406
0.99298
0.834737
1.44136
1.3919
1.30718
1.24674
1.21558
1.21504
1.23343
1.25576
1.27942
1.30648
1.34936
1.38407
1.29137
1.177
1.08036
1.05196
1.06753
1.1107
1.1577
1.19141
1.21245
1.22845
1.24952
1.27142
1.05792
0.964391
0.914359
0.925853
0.977765
1.04377
1.10182
1.13785
1.15508
1.16379
1.17438
1.18975
0.726595
0.776017
0.790275
0.84106
0.913878
0.988904
1.04872
1.08383
1.09983
1.10681
1.1149
1.12853
1.10495
1.12637
1.14095
1.14974
1.15377
1.14945
1.1317
1.09966
1.04427
0.939843
0.724328
0.395163
1.07072
1.0927
1.1069
1.1146
1.11621
1.10394
1.07294
1.01754
0.923124
0.75739
0.423185
0.103039
1.04344
1.06871
1.08446
1.092
1.08944
1.06492
1.01418
0.928765
0.792062
0.576929
0.224297
0.06324
1.01557
1.04507
1.06313
1.07121
1.0627
1.02497
0.953359
0.838665
0.668261
0.433402
0.168391
0.0605865
0.980112
1.01344
1.03399
1.04317
1.02946
0.980649
0.891672
0.755268
0.568052
0.347057
0.158951
0.0616241
0.932114
0.968225
0.991129
1.00186
0.985223
0.929682
0.830269
0.68324
0.495781
0.301618
0.160227
0.062703
0.869305
0.906759
0.931648
0.944212
0.927416
0.870449
0.768853
0.622398
0.44633
0.279048
0.162173
0.0638358
0.791345
0.828563
0.854876
0.869292
0.854844
0.801463
0.705433
0.568738
0.410318
0.265857
0.162834
0.0620558
0.698443
0.73385
0.760864
0.776813
0.766424
0.720417
0.636226
0.515927
0.377781
0.252386
0.157482
0.0579415
0.588771
0.620659
0.647141
0.66385
0.658122
0.621386
0.554114
0.455142
0.338331
0.229813
0.140879
0.050137
0.448787
0.475193
0.498602
0.514148
0.512333
0.485802
0.438543
0.369059
0.275261
0.184999
0.105656
0.0384827
0.203049
0.213571
0.222161
0.227147
0.228784
0.222094
0.20667
0.183645
0.148877
0.105316
0.0656636
0.0270456
0.381297
0.630758
0.702969
0.77776
0.859161
0.935075
0.992771
1.02702
1.04466
1.05564
1.06704
1.08272
0.264918
0.537836
0.636561
0.721519
0.804414
0.877832
0.933194
0.968573
0.991275
1.00879
1.02644
1.04688
0.227316
0.476678
0.580745
0.667259
0.748124
0.817947
0.87125
0.909085
0.937616
0.96267
0.988056
1.0152
0.200972
0.426938
0.528279
0.612441
0.689878
0.756038
0.807803
0.84792
0.881872
0.914098
0.94716
0.981471
0.177939
0.380435
0.476062
0.556315
0.629835
0.692419
0.742692
0.784433
0.822594
0.860541
0.899852
0.940311
0.156069
0.334067
0.423136
0.498797
0.568143
0.62714
0.675637
0.718001
0.758703
0.800266
0.843637
0.888191
0.13429
0.286938
0.369374
0.439885
0.504714
0.559962
0.606233
0.648094
0.689541
0.732462
0.777388
0.823543
0.112478
0.239067
0.314818
0.379313
0.439038
0.490222
0.533774
0.574052
0.614584
0.656773
0.700931
0.746284
0.0901167
0.190947
0.25921
0.316208
0.369862
0.416513
0.456856
0.494621
0.532838
0.57259
0.614051
0.65665
0.0694244
0.142484
0.201384
0.248332
0.294351
0.33553
0.372008
0.406372
0.441137
0.477137
0.514525
0.552146
0.0497076
0.0936171
0.136017
0.167878
0.204032
0.238029
0.269266
0.298804
0.328537
0.358871
0.389229
0.419309
0.0214039
0.0357357
0.0545147
0.0665572
0.0834311
0.101548
0.117838
0.132961
0.1478
0.162431
0.176414
0.190349
1.10432
1.12615
1.14095
1.14989
1.15417
1.1502
1.13281
1.10105
1.04582
0.941338
0.72545
0.39565
1.07053
1.09288
1.10729
1.1151
1.11691
1.10498
1.0742
1.01891
0.924451
0.758467
0.423791
0.103104
1.04353
1.06914
1.08505
1.09268
1.09034
1.06603
1.01538
0.929917
0.793041
0.57758
0.224567
0.0632108
1.01583
1.0456
1.06379
1.07194
1.06359
1.02596
0.954329
0.839503
0.668867
0.433697
0.168422
0.0605334
0.980336
1.01389
1.03453
1.04378
1.03017
0.981377
0.892325
0.755757
0.568322
0.3471
0.158872
0.0615632
0.932203
0.968488
0.991466
1.00225
0.985661
0.930089
0.830581
0.683405
0.495788
0.301505
0.160091
0.0626371
0.869161
0.906762
0.931714
0.944319
0.927545
0.870531
0.76885
0.622296
0.446151
0.278847
0.162013
0.063764
0.790971
0.828309
0.85468
0.869129
0.854687
0.801263
0.705175
0.568442
0.41002
0.265609
0.162667
0.0619778
0.697879
0.733387
0.760454
0.776435
0.766046
0.720012
0.635797
0.515514
0.377419
0.252118
0.157311
0.0578731
0.58808
0.620084
0.646618
0.663353
0.657629
0.620876
0.553616
0.454691
0.337952
0.229545
0.140714
0.0500782
0.448107
0.474635
0.498091
0.51366
0.511849
0.485312
0.438081
0.368654
0.274904
0.184759
0.105515
0.0384408
0.202618
0.213221
0.221839
0.226867
0.228573
0.221879
0.206463
0.183458
0.148721
0.105209
0.0656011
0.0270229
0.381231
0.630769
0.703123
0.778253
0.86018
0.936741
0.995173
1.02993
1.04776
1.05861
1.06981
1.08513
0.264676
0.537672
0.636602
0.721952
0.805399
0.879465
0.935515
0.971327
0.994139
1.01157
1.02895
1.04907
0.227115
0.476516
0.580782
0.667693
0.749105
0.819553
0.873464
0.911685
0.940323
0.965261
0.990402
1.0172
0.200817
0.426829
0.528352
0.612897
0.690861
0.757609
0.809924
0.850396
0.884454
0.916575
0.949373
0.983361
0.177828
0.380383
0.476176
0.556793
0.630812
0.693948
0.744726
0.786806
0.825083
0.862939
0.902022
0.942142
0.155981
0.334058
0.42328
0.499286
0.569103
0.628616
0.677585
0.72028
0.761114
0.802622
0.845778
0.890022
0.134226
0.286952
0.369532
0.440364
0.505639
0.56137
0.608086
0.650273
0.691873
0.734769
0.779531
0.825383
0.112432
0.239083
0.314969
0.37976
0.439905
0.491543
0.535513
0.576111
0.616811
0.659011
0.703031
0.748128
0.0900852
0.190955
0.259336
0.316596
0.370643
0.417719
0.45845
0.496522
0.534912
0.574697
0.616056
0.658439
0.0693858
0.142479
0.201465
0.248629
0.295009
0.336575
0.373408
0.408053
0.442984
0.479039
0.516336
0.55374
0.0496728
0.0935886
0.136028
0.168032
0.204506
0.238837
0.270382
0.300156
0.330028
0.360384
0.390625
0.420573
0.0213906
0.035704
0.0544917
0.0665911
0.083643
0.101928
0.118367
0.133593
0.148492
0.163132
0.177072
0.190948
1.1064
1.12774
1.14221
1.15094
1.15489
1.1505
1.13272
1.10057
1.04492
0.94025
0.724668
0.395574
1.07236
1.09423
1.10833
1.11596
1.11745
1.10503
1.07389
1.01828
0.923577
0.757667
0.423625
0.103215
1.04519
1.07033
1.08593
1.09337
1.09059
1.06589
1.01497
0.929336
0.79244
0.577288
0.22494
0.0632983
1.01736
1.04667
1.06451
1.07246
1.06364
1.02572
0.953926
0.839094
0.668634
0.433893
0.168753
0.0605966
0.981824
1.01491
1.03518
1.04418
1.03011
0.981096
0.89198
0.755539
0.568368
0.347453
0.159136
0.0616183
0.933663
0.969496
0.992092
1.00259
0.985545
0.929808
0.830305
0.683315
0.495964
0.301842
0.160271
0.0626771
0.870622
0.907789
0.932385
0.944657
0.92744
0.870276
0.768632
0.62226
0.446337
0.279088
0.162103
0.0637851
0.79242
0.829339
0.855418
0.869497
0.854634
0.801052
0.705004
0.568405
0.410154
0.265744
0.162707
0.0619731
0.699274
0.734417
0.761226
0.776833
0.766071
0.719845
0.635685
0.515435
0.377495
0.252164
0.157291
0.0578581
0.589352
0.621051
0.647359
0.663758
0.657698
0.620784
0.553518
0.454596
0.337971
0.229545
0.140684
0.0500526
0.44914
0.475447
0.498708
0.514005
0.51193
0.485272
0.438018
0.368551
0.274915
0.184755
0.105497
0.0384139
0.203119
0.213631
0.222165
0.227058
0.228591
0.221849
0.206401
0.183376
0.148637
0.105141
0.0655407
0.0269896
0.381578
0.631196
0.70362
0.778575
0.860085
0.936046
0.993658
1.02777
1.04523
1.056
1.06725
1.08284
0.265085
0.538251
0.63716
0.722256
0.805238
0.878681
0.933939
0.969148
0.991629
1.00895
1.02644
1.04677
0.227484
0.477093
0.581306
0.667926
0.748852
0.818663
0.871853
0.909506
0.937826
0.962683
0.987914
1.01494
0.201144
0.427345
0.528802
0.613042
0.690517
0.756645
0.808292
0.848229
0.881984
0.914027
0.946947
0.98114
0.178116
0.380822
0.476543
0.556854
0.630396
0.692937
0.743093
0.784665
0.822649
0.860436
0.899623
0.939979
0.156235
0.334423
0.42357
0.499276
0.568634
0.627585
0.675972
0.718184
0.758732
0.80016
0.843433
0.887904
0.134444
0.287254
0.36976
0.440305
0.505143
0.560344
0.606519
0.648246
0.689564
0.732376
0.77723
0.823325
0.112608
0.239335
0.31515
0.379674
0.439406
0.490549
0.534018
0.574184
0.614612
0.656718
0.700828
0.746144
0.0902292
0.191164
0.259487
0.316506
0.370169
0.416784
0.457063
0.494734
0.532875
0.572564
0.614001
0.656583
0.06951
0.142646
0.201597
0.248562
0.294586
0.33574
0.372169
0.406466
0.441177
0.477139
0.514519
0.552134
0.04977
0.0937231
0.136155
0.168022
0.204178
0.238162
0.26937
0.29887
0.328574
0.358894
0.389252
0.419332
0.0214311
0.0357769
0.054568
0.0666105
0.0834905
0.101611
0.117893
0.133007
0.147839
0.162469
0.176452
0.190389
1.10436
1.12599
1.14066
1.14951
1.15359
1.14935
1.13165
1.09962
1.04413
0.939487
0.72373
0.394645
1.0703
1.09243
1.1067
1.11442
1.11606
1.10382
1.07281
1.01734
0.922741
0.756797
0.422628
0.102856
1.04314
1.06853
1.08429
1.09183
1.08926
1.0647
1.01387
0.928312
0.791417
0.57617
0.223861
0.0630935
1.01537
1.04494
1.06297
1.07102
1.06242
1.02458
0.952818
0.837962
0.66741
0.432581
0.167999
0.0604401
0.979899
1.01327
1.03376
1.04289
1.02903
0.98005
0.890902
0.754355
0.567083
0.346266
0.158555
0.0614734
0.931829
0.967969
0.990806
1.00146
0.984635
0.9289
0.829315
0.682188
0.494776
0.300879
0.159824
0.0625497
0.868875
0.906366
0.931204
0.943686
0.926691
0.869529
0.767776
0.621281
0.445342
0.278359
0.161774
0.0636791
0.790781
0.828037
0.854329
0.868657
0.854022
0.800462
0.704303
0.567619
0.409375
0.265214
0.16244
0.0619031
0.697776
0.733231
0.760239
0.776114
0.765559
0.719402
0.635111
0.514859
0.376899
0.251786
0.157103
0.0578003
0.588048
0.620018
0.646509
0.663152
0.657288
0.620429
0.553093
0.454175
0.33753
0.229264
0.140531
0.0500149
0.448122
0.47463
0.498054
0.513546
0.511624
0.485002
0.437722
0.368268
0.274573
0.184536
0.105376
0.0383904
0.202651
0.213242
0.22184
0.226827
0.228479
0.221747
0.206309
0.183295
0.148551
0.105084
0.0655163
0.0269868
0.38049
0.629574
0.701791
0.776681
0.858274
0.934468
0.992639
1.02732
1.04514
1.05591
1.06697
1.08234
0.264296
0.536776
0.635457
0.720496
0.803572
0.877263
0.933041
0.968746
0.991516
1.00889
1.02611
1.0462
0.226818
0.475765
0.579751
0.666322
0.747355
0.817436
0.871068
0.909148
0.937726
0.962603
0.987577
1.01427
0.200556
0.426159
0.527402
0.611604
0.689193
0.755587
0.807622
0.847927
0.881904
0.913964
0.946594
0.980426
0.17759
0.379772
0.475298
0.555579
0.629235
0.692032
0.742531
0.784424
0.822601
0.860403
0.899345
0.93932
0.155769
0.333501
0.422474
0.498158
0.567627
0.626817
0.675509
0.718001
0.758722
0.800191
0.843259
0.88741
0.134034
0.286455
0.368804
0.439333
0.504276
0.5597
0.606141
0.648114
0.689591
0.732474
0.777215
0.823063
0.112263
0.238654
0.314328
0.378838
0.438669
0.490012
0.533713
0.574092
0.614668
0.656881
0.700955
0.746148
0.089939
0.190599
0.258791
0.3158
0.369547
0.416344
0.456811
0.494674
0.532945
0.57277
0.614241
0.656833
0.0692784
0.142201
0.201034
0.247981
0.294082
0.335377
0.371962
0.406413
0.441251
0.477341
0.514797
0.552553
0.0495978
0.0934038
0.135738
0.167579
0.203802
0.237874
0.269191
0.298807
0.328629
0.359066
0.389538
0.419755
0.021362
0.0356424
0.0543851
0.0664147
0.0833382
0.101502
0.117847
0.133038
0.147934
0.162636
0.176678
0.190711
)
;

boundaryField
{
    rotor
    {
        type            kqRWallFunction;
        value           nonuniform List<scalar> 
192
(
0.0732471
0.093692
0.10794
0.104966
0.122551
0.308274
0.60185
0.737363
0.800371
0.847586
0.870043
0.881522
0.876068
0.870157
0.856533
0.833713
0.799477
0.757778
0.704516
0.641527
0.561721
0.466429
0.381473
0.314452
0.0720368
0.0921679
0.106538
0.103677
0.121016
0.3039
0.598113
0.734385
0.797646
0.845021
0.867666
0.879353
0.874083
0.868368
0.85493
0.832491
0.798451
0.75706
0.703952
0.641163
0.561492
0.466431
0.381432
0.314454
0.072162
0.0923187
0.106605
0.103779
0.121533
0.307316
0.601847
0.737878
0.80113
0.848497
0.871074
0.882665
0.877266
0.87142
0.857851
0.835104
0.800871
0.759166
0.705832
0.642736
0.56279
0.467337
0.382196
0.315085
0.0721647
0.0923324
0.10676
0.103913
0.121334
0.304963
0.598969
0.73495
0.798082
0.84533
0.867837
0.879454
0.874117
0.86834
0.854858
0.832307
0.798241
0.756789
0.703688
0.640895
0.561248
0.466171
0.381281
0.314323
0.0732471
0.158845
0.233612
0.282914
0.311425
0.304852
0.283083
0.260799
0.261799
0.288708
0.357463
1.15959
0.314323
0.656
0.847166
1.0057
1.12074
1.23437
1.33171
1.44555
1.57363
1.702
1.85452
2.06996
0.0720368
0.157652
0.232082
0.281417
0.310037
0.303952
0.282433
0.260607
0.261891
0.288848
0.357298
1.15668
0.314452
0.656201
0.847351
1.00583
1.12079
1.23434
1.33164
1.44544
1.57343
1.70171
1.85399
2.06914
0.072162
0.158017
0.232862
0.282426
0.311146
0.304929
0.283259
0.261218
0.262404
0.289444
0.358133
1.15895
0.314454
0.656363
0.847762
1.00651
1.12175
1.23556
1.33307
1.44708
1.57534
1.70391
1.85669
2.07256
0.0721647
0.157917
0.232325
0.281605
0.310127
0.30392
0.282311
0.260397
0.261721
0.288836
0.357622
1.15824
0.315085
0.657459
0.849002
1.00785
1.1231
1.23695
1.3345
1.44858
1.57687
1.70538
1.8579
2.07332
)
;
    }
    stator
    {
        type            kqRWallFunction;
        value           nonuniform List<scalar> 
192
(
0.203049
0.213571
0.222161
0.227147
0.228784
0.222094
0.20667
0.183645
0.148877
0.105316
0.0656636
0.0270456
0.0214039
0.0357357
0.0545147
0.0665572
0.0834311
0.101548
0.117838
0.132961
0.1478
0.162431
0.176414
0.190349
0.202618
0.213221
0.221839
0.226867
0.228573
0.221879
0.206463
0.183458
0.148721
0.105209
0.0656011
0.0270229
0.0213906
0.035704
0.0544917
0.0665911
0.083643
0.101928
0.118367
0.133593
0.148492
0.163132
0.177072
0.190948
0.203119
0.213631
0.222165
0.227058
0.228591
0.221849
0.206401
0.183376
0.148637
0.105141
0.0655407
0.0269896
0.0214311
0.0357769
0.054568
0.0666105
0.0834905
0.101611
0.117893
0.133007
0.147839
0.162469
0.176452
0.190389
0.202651
0.213242
0.22184
0.226827
0.228479
0.221747
0.206309
0.183295
0.148551
0.105084
0.0655163
0.0269868
0.021362
0.0356424
0.0543851
0.0664147
0.0833382
0.101502
0.117847
0.133038
0.147934
0.162636
0.176678
0.190711
0.381297
0.264918
0.227316
0.200972
0.177939
0.156069
0.13429
0.112478
0.0901167
0.0694244
0.0497076
0.0214039
0.395163
0.103039
0.06324
0.0605865
0.0616241
0.062703
0.0638358
0.0620558
0.0579415
0.050137
0.0384827
0.0270456
0.381231
0.264676
0.227115
0.200817
0.177828
0.155981
0.134226
0.112432
0.0900852
0.0693858
0.0496728
0.0213906
0.39565
0.103104
0.0632108
0.0605334
0.0615632
0.0626371
0.063764
0.0619778
0.0578731
0.0500782
0.0384408
0.0270229
0.381578
0.265085
0.227484
0.201144
0.178116
0.156235
0.134444
0.112608
0.0902292
0.06951
0.04977
0.0214311
0.395574
0.103215
0.0632983
0.0605966
0.0616183
0.0626771
0.0637851
0.0619731
0.0578581
0.0500526
0.0384139
0.0269896
0.38049