/*--------------------------------*- C++ -*----------------------------------*\
| =========                 |                                                 |
| \\      /  F ield         | OpenFOAM: The Open Source CFD Toolbox           |
|  \\    /   O peration     | Version:  4.0                                   |
|   \\  /    A nd           | Web:      www.OpenFOAM.org                      |
|    \\/     M anipulation  |                                                 |
\*---------------------------------------------------------------------------*/
FoamFile
{
    version     2.0;
    format      ascii;
    class       volScalarField;
    location    "150";
    object      nut;
}
// * * * * * * * * * * * * * * * * * * * * * * * * * * * * * * * * * * * * * //

dimensions      [0 2 -1 0 0 0 0];

internalField   nonuniform List<scalar> 
3072
(
4.16745e-05
8.67894e-05
9.32747e-05
9.19627e-05
9.89426e-05
0.000155616
0.000219383
0.0002434
0.000253752
0.000261187
0.000264623
0.000266354
6.89122e-05
0.000181936
0.000215342
0.000164446
0.000186475
0.000250944
0.00036454
0.000503385
0.000699596
0.000915502
0.00112508
0.00132533
9.20621e-05
0.000343424
0.000322797
0.000300351
0.000388363
0.000585712
0.000860112
0.0012082
0.00156902
0.0019076
0.00220669
0.00243417
0.000110878
0.000420863
0.000446313
0.000473305
0.000682241
0.000990259
0.00140537
0.00183884
0.00226121
0.00263922
0.0029662
0.00320777
0.000126302
0.000533034
0.000599383
0.000689425
0.000975032
0.0013667
0.00182893
0.00229714
0.00273558
0.00312817
0.00346106
0.00371571
0.000134864
0.000595556
0.00073492
0.000889085
0.001214
0.00163338
0.00210376
0.00257331
0.0030051
0.00339305
0.00372423
0.00398795
0.000139673
0.000651034
0.000841402
0.00104788
0.00138134
0.00179227
0.00224719
0.0027034
0.00312678
0.00350451
0.00382727
0.0040901
0.000143883
0.000712218
0.000960464
0.0011645
0.00147756
0.00187068
0.00230382
0.00272367
0.00311268
0.0034615
0.00376649
0.00402648
0.000154011
0.000807456
0.00107243
0.00132864
0.00161191
0.00193245
0.00229412
0.00263666
0.00298337
0.00331327
0.00360308
0.00385287
0.00017191
0.00090544
0.00130319
0.00159763
0.00182287
0.00203891
0.0022962
0.00257505
0.00284522
0.00309994
0.00336041
0.00359787
0.000202443
0.000932056
0.00151566
0.00187891
0.00203029
0.00219133
0.00232446
0.00249147
0.00269695
0.00291534
0.00310941
0.00330034
0.000383178
0.000908877
0.00162075
0.0019889
0.00216118
0.0022835
0.00235042
0.00242862
0.00253601
0.00268321
0.00286538
0.00302451
0.000265484
0.000264537
0.000262377
0.000258785
0.000253334
0.000246571
0.000237684
0.000226784
0.000212177
0.000193351
0.000174694
8.65486e-05
0.0014835
0.00156756
0.00160354
0.00154533
0.00145439
0.00132005
0.00114503
0.000950631
0.000742208
0.00047933
0.000240716
0.000139866
0.00259357
0.00269021
0.00270807
0.00264903
0.00251623
0.00233075
0.00206425
0.00172623
0.0013253
0.00087409
0.000394435
0.00017574
0.00339653
0.00351462
0.00355896
0.00352449
0.00339701
0.0032126
0.0029241
0.00250907
0.00198704
0.00136771
0.000663316
0.000209682
0.00392343
0.00406119
0.00413228
0.00413248
0.00404351
0.00389126
0.00363663
0.00321463
0.00261748
0.00186037
0.00095356
0.000240568
0.00420457
0.00435899
0.00445386
0.00448711
0.00444518
0.00433965
0.00413386
0.00377441
0.00321253
0.00237176
0.00130029
0.000272592
0.00430173
0.00446048
0.00456677
0.00462457
0.0046312
0.00458415
0.00445217
0.00417964
0.00370537
0.00287627
0.00168253
0.000304071
0.00423616
0.00440279
0.00451759
0.00458914
0.00462805
0.00463226
0.00458424
0.00443506
0.00407375
0.00332673
0.00203813
0.000338616
0.00405875
0.00422735
0.00434874
0.00442335
0.00448081
0.00452361
0.00453687
0.00451206
0.00433196
0.00371671
0.00234102
0.000376015
0.00379793
0.0039647
0.00408761
0.00416189
0.00423136
0.00429909
0.0043487
0.00442326
0.00443045
0.00402787
0.0027106
0.000414741
0.00348445
0.00364159
0.0037561
0.00383592
0.00391977
0.00399123
0.0040636
0.0042107
0.00437564
0.00427079
0.00317484
0.000457682
0.00316929
0.00329656
0.00340175
0.00349022
0.00360033
0.00367604
0.0037784
0.00396124
0.00420998
0.00438511
0.0037089
0.000509992
4.15531e-05
8.61904e-05
9.27216e-05
9.1437e-05
9.8347e-05
0.000154406
0.000218653
0.00024293
0.000253347
0.000260819
0.000264292
0.000266058
6.86767e-05
0.000181202
0.000214325
0.000163466
0.000186076
0.000250236
0.000362615
0.000500708
0.000695806
0.000910457
0.00112422
0.00132095
9.17713e-05
0.000342597
0.000322084
0.000299354
0.000386537
0.000582344
0.000855262
0.00120302
0.0015638
0.00190235
0.00220201
0.00242905
0.000110568
0.000419942
0.000445074
0.000471661
0.000679322
0.000985699
0.00139983
0.00183308
0.00225568
0.00263348
0.00296111
0.00320293
0.000126003
0.000532189
0.000598196
0.00068761
0.000971832
0.00136203
0.00182377
0.00229193
0.00273073
0.00312332
0.00345705
0.00371242
0.000134635
0.000595577
0.000733971
0.000887472
0.00121125
0.00162973
0.00210002
0.00256998
0.00300207
0.00339014
0.0037222
0.00398674
0.000139478
0.000651239
0.000840897
0.00104721
0.00137994
0.00179048
0.00224587
0.00270147
0.00312498
0.00350308
0.00382667
0.00409079
0.000143862
0.000713175
0.000960465
0.00116437
0.00147687
0.00186974
0.00230392
0.00272426
0.00311333
0.00346254
0.00376814
0.00402899
0.000153989
0.000808579
0.00107411
0.00133067
0.00161377
0.00193415
0.00229596
0.00263933
0.00298589
0.00331622
0.00360655
0.003857
0.000171952
0.000907331
0.00130562
0.00160128
0.00182683
0.0020427
0.00229992
0.00257882
0.00285001
0.00310444
0.00336513
0.0036029
0.000202379
0.000932374
0.00151624
0.00187992
0.00203195
0.00219473
0.00232848
0.00249569
0.00270131
0.00292074
0.00311523
0.00330641
0.000382772
0.000907418
0.00161905
0.00198879
0.00216075
0.00228463
0.00235268
0.00243187
0.00253994
0.0026876
0.00287038
0.00303015
0.000265214
0.000264298
0.000262168
0.000258625
0.000253201
0.000246477
0.000237609
0.000226739
0.00021215
0.000193365
0.000174697
8.65546e-05
0.00147994
0.00156465
0.0016012
0.00154328
0.00145278
0.00131893
0.00114442
0.000950416
0.000742144
0.000479198
0.000240697
0.000139893
0.00258851
0.00268599
0.00270447
0.00264599
0.00251354
0.00232885
0.00206284
0.00172538
0.00132504
0.000874173
0.000394501
0.000175795
0.00339173
0.00351068
0.00355588
0.00352234
0.00339526
0.00321176
0.00292293
0.00250846
0.00198703
0.00136806
0.00066365
0.000209768
0.00392033
0.00405872
0.00413054
0.0041315
0.00404285
0.00389182
0.00363708
0.00321492
0.002618
0.00186109
0.000954036
0.000240683
0.00420383
0.00435861
0.00445417
0.00448814
0.00444658
0.00434211
0.00413625
0.00377676
0.00321447
0.00237321
0.00130104
0.000272731
0.00430319
0.0044625
0.00456953
0.00462813
0.00463538
0.00458888
0.00445685
0.00418401
0.00370916
0.00287866
0.00168357
0.000304234
0.00423952
0.0044069
0.00452263
0.00459507
0.00463476
0.00463948
0.00459163
0.00444205
0.0040793
0.00333037
0.00203974
0.000338804
0.00406382
0.00423322
0.0043556
0.00443119
0.00448965
0.00453293
0.00454652
0.00452151
0.00433991
0.00372207
0.00234301
0.000376241
0.00380397
0.00397164
0.0040956
0.00417107
0.00424207
0.00430997
0.00436013
0.00443457
0.00444051
0.00403445
0.00271299
0.000415013
0.00349069
0.00364864
0.00376443
0.00384574
0.00393226
0.00400365
0.00407614
0.00422293
0.00438728
0.00427925
0.00317791
0.000458017
0.00317562
0.00330367
0.00340993
0.00350013
0.00361213
0.00368751
0.00379126
0.00397456
0.00422243
0.0043955
0.00371309
0.000510448
4.16146e-05
8.62818e-05
9.2787e-05
9.14882e-05
9.85556e-05
0.000155336
0.000219396
0.000243479
0.000253879
0.000261332
0.000264789
0.000266537
6.87886e-05
0.000181242
0.000213977
0.000163342
0.000186291
0.000250916
0.000364354
0.000503096
0.000698588
0.000913652
0.00112759
0.00132527
9.19375e-05
0.000343031
0.000322595
0.000300019
0.000388188
0.000584839
0.000859365
0.00120777
0.00156883
0.0019079
0.0022082
0.00243568
0.000110763
0.000420624
0.000445943
0.000472959
0.000681609
0.000989238
0.00140484
0.001839
0.00226214
0.00264082
0.00296872
0.00321084
0.000126209
0.000532933
0.000599207
0.000689049
0.000974359
0.00136613
0.00182919
0.00229842
0.00273794
0.00313133
0.00346514
0.00372056
0.000134839
0.000596256
0.000735095
0.000889005
0.00121389
0.00163384
0.00210537
0.00257643
0.0030094
0.00339822
0.00373017
0.00399438
0.000139676
0.000651761
0.000842004
0.0010486
0.00138228
0.001794
0.00225042
0.00270758
0.00313211
0.00351087
0.00383457
0.00409838
0.000144007
0.000713581
0.000961437
0.00116555
0.00147888
0.00187286
0.00230777
0.00272939
0.00311965
0.00346958
0.00377553
0.00403642
0.00015416
0.000809088
0.00107443
0.00133096
0.00161455
0.00193582
0.00229866
0.00264302
0.00299108
0.00332217
0.003613
0.00386372
0.000172138
0.000907649
0.00130593
0.00160116
0.00182675
0.00204315
0.00230129
0.00258151
0.00285301
0.00310907
0.00337066
0.00360918
0.00020262
0.000933567
0.00151761
0.00188115
0.00203296
0.00219515
0.00232919
0.00249737
0.00270422
0.00292355
0.00311892
0.00331123
0.000383111
0.000908847
0.00162113
0.00198999
0.00216238
0.00228555
0.00235347
0.00243289
0.00254171
0.00269055
0.00287353
0.00303401
0.000265675
0.000264741
0.000262591
0.000259011
0.000253566
0.000246806
0.000237914
0.000227006
0.000212385
0.000193544
0.000174862
8.66366e-05
0.00148403
0.00156858
0.00160484
0.00154674
0.0014559
0.0013216
0.00114652
0.000951934
0.000743214
0.000479936
0.000240985
0.000140002
0.00259535
0.00269243
0.00271049
0.00265154
0.00251876
0.00233341
0.00206685
0.00172854
0.00132715
0.000875311
0.000394949
0.000175914
0.00339993
0.00351845
0.00356302
0.00352868
0.0034012
0.00321685
0.00292796
0.00251262
0.00198995
0.00136968
0.000664207
0.000209896
0.00392874
0.00406695
0.00413831
0.00413868
0.00404966
0.0038974
0.00364226
0.00321959
0.0026216
0.00186324
0.000954871
0.00024082
0.00421163
0.00436657
0.00446174
0.00449509
0.00445305
0.00434747
0.00414134
0.00378117
0.00321802
0.00237569
0.00130215
0.000272885
0.00431077
0.00446997
0.00457649
0.0046344
0.00464099
0.00459375
0.00446123
0.00418787
0.00371246
0.00288135
0.00168522
0.000304403
0.00424669
0.00441378
0.00452884
0.00460056
0.00463951
0.00464358
0.00459515
0.00444505
0.00408213
0.00333291
0.00204117
0.000338988
0.00407036
0.0042395
0.00436117
0.00443599
0.00449358
0.00453635
0.00454935
0.00452372
0.00434203
0.00372418
0.00234468
0.000376429
0.00381021
0.00397758
0.00410077
0.00417527
0.00424496
0.00431283
0.00436231
0.00443626
0.00444204
0.00403659
0.00271484
0.000415192
0.00349701
0.00365485
0.00376941
0.00384954
0.00393374
0.00400546
0.00407802
0.00422481
0.00438855
0.00428091
0.00317976
0.00045817
0.00318003
0.00330819
0.00341406
0.00350318
0.00361374
0.00368964
0.00379183
0.00397478
0.00422316
0.00439635
0.00371489
0.000510536
4.1593e-05
8.62714e-05
9.28187e-05
9.15379e-05
9.8474e-05
0.000154704
0.000218814
0.000243018
0.000253412
0.000260858
0.000264296
0.000266065
6.874e-05
0.00018148
0.000214792
0.000163904
0.000186229
0.000250229
0.000362954
0.000501586
0.000697102
0.000911504
0.0011236
0.00132186
9.18309e-05
0.000342844
0.000322517
0.000299785
0.000386437
0.000582752
0.000855986
0.00120411
0.00156463
0.00190283
0.00220186
0.00242915
0.000110614
0.00041988
0.000445243
0.000471203
0.000678841
0.000985987
0.00140037
0.00183366
0.00225601
0.00263375
0.0029609
0.0032025
0.00012603
0.00053158
0.000597737
0.000686561
0.000971357
0.00136203
0.00182391
0.00229203
0.0027306
0.00312317
0.00345643
0.00371124
0.000134629
0.000594565
0.000733027
0.000885963
0.00121031
0.00162915
0.0020995
0.00256925
0.00300114
0.0033891
0.00372055
0.00398427
0.00013945
0.00065004
0.000839695
0.00104526
0.00137831
0.00178903
0.00224434
0.00270011
0.00312347
0.00350133
0.00382438
0.00408751
0.000143811
0.000711923
0.000958855
0.00116196
0.00147459
0.00186771
0.00230177
0.0027219
0.0031108
0.00345969
0.00376487
0.0040251
0.000153945
0.000807472
0.00107193
0.00132757
0.0016105
0.00193096
0.00229305
0.00263594
0.00298242
0.00331242
0.00360238
0.00385241
0.000171953
0.000906469
0.00130373
0.00159825
0.00182323
0.00203867
0.00229612
0.0025749
0.00284549
0.0030998
0.00336027
0.00359795
0.000202469
0.000932585
0.00151609
0.00187926
0.0020305
0.00219151
0.0023247
0.0024916
0.00269691
0.00291576
0.0031099
0.00330096
0.000382995
0.000908209
0.00162019
0.00198878
0.00216058
0.00228312
0.00235012
0.00242846
0.0025358
0.00268296
0.00286547
0.00302481
0.00026521
0.000264284
0.000262146
0.000258588
0.000253159
0.000246426
0.000237558
0.000226686
0.000212099
0.000193307
0.000174659
8.65343e-05
0.00148013
0.00156452
0.00160078
0.00154273
0.0014521
0.00131814
0.00114363
0.000949706
0.000741625
0.000478954
0.000240611
0.000139852
0.00258837
0.00268545
0.00270367
0.00264503
0.00251249
0.00232763
0.0020616
0.00172428
0.00132411
0.000873517
0.000394231
0.00017573
0.0033911
0.00350959
0.00355446
0.00352063
0.00339336
0.00320963
0.00292093
0.00250656
0.00198542
0.00136694
0.000663118
0.000209679
0.00391881
0.00405672
0.00412809
0.00412865
0.00403975
0.00388842
0.00363388
0.0032121
0.00261565
0.00185943
0.000953247
0.000240571
0.00420093
0.00435551
0.00445061
0.00448412
0.00444224
0.00433745
0.00413171
0.00377262
0.00321117
0.0023709
0.00129995
0.000272598
0.00429938
0.00445831
0.00456482
0.00462287
0.00462968
0.00458293
0.00445103
0.00417867
0.00370466
0.00287566
0.00168214
0.00030408
0.00423501
0.00440181
0.0045169
0.00458873
0.00462789
0.00463227
0.0045844
0.00443528
0.00407374
0.00332656
0.00203804
0.000338628
0.0040586
0.00422738
0.00434909
0.00442403
0.00448186
0.00452472
0.00453813
0.0045134
0.004333
0.00371725
0.002341
0.000376039
0.00379836
0.00396535
0.00408861
0.00416336
0.00423366
0.00430115
0.00435094
0.00442544
0.00443234
0.00402877
0.00271069
0.000414781
0.00348493
0.00364231
0.00375731
0.00383776
0.00392346
0.00399451
0.00406656
0.00421315
0.00437809
0.00427244
0.00317513
0.00045775
0.00316984
0.00329735
0.00340288
0.00349208
0.00360317
0.00367829
0.00378145
0.00396446
0.00421276
0.00438746
0.00370963
0.000510128
0.0024827
0.00240488
0.00243002
0.00246056
0.00248185
0.00249535
0.00250649
0.00250462
0.00251538
0.00256646
0.00265147
0.0027671
0.00360538
0.00332573
0.00310937
0.00297882
0.00282397
0.00272114
0.00267527
0.00259615
0.00257406
0.00257151
0.00258507
0.00262626
0.00421628
0.0039523
0.00369106
0.00347466
0.00324561
0.00305061
0.00290005
0.00277965
0.00271684
0.00261926
0.00258743
0.00258447
0.00431225
0.00414692
0.0039514
0.00375043
0.00352282
0.00329831
0.0030967
0.00290324
0.00280238
0.00272878
0.00264269
0.00255646
0.0028847
0.0029936
0.00308926
0.00319249
0.00333105
0.00342255
0.00356878
0.00377384
0.00403438
0.00444345
0.00499546
0.00259201
0.00269085
0.00276999
0.00286139
0.00299426
0.00312902
0.0032862
0.00346446
0.00366593
0.0038932
0.00427387
0.00505729
0.00398516
0.00260774
0.00267034
0.00277195
0.00292125
0.00308034
0.00326352
0.00346181
0.00367785
0.00389257
0.00414152
0.00471031
0.00449033
0.00260072
0.00272207
0.00285822
0.00300906
0.00320109
0.00342931
0.00366039
0.00386802
0.00403746
0.00416253
0.00442084
0.00442875
0.00247566
0.00239985
0.00242565
0.00245717
0.00247905
0.00249403
0.0025064
0.00250599
0.00251789
0.00256995
0.00265582
0.00277203
0.00359719
0.0033185
0.00310328
0.00297354
0.00282101
0.00271849
0.00267364
0.00259663
0.00257435
0.00257342
0.00258808
0.00263029
0.00420686
0.00394372
0.00368384
0.00346838
0.00324124
0.00304696
0.00289771
0.00277738
0.00271635
0.0026209
0.00258948
0.00258752
0.00430227
0.00413783
0.00394361
0.00374386
0.0035181
0.00329428
0.00309904
0.00289947
0.00280015
0.00272788
0.00264462
0.00255902
0.0028903
0.00300004
0.00309691
0.00320249
0.00334138
0.00343321
0.00358124
0.00378681
0.00404707
0.00445511
0.00500431
0.00259433
0.0026956
0.00277558
0.00286846
0.00300338
0.00313824
0.00329667
0.00347575
0.00367768
0.00390507
0.00428581
0.00506782
0.00399257
0.00261158
0.00267529
0.00277886
0.00292833
0.00308859
0.00327282
0.00347157
0.00368807
0.00390292
0.0041525
0.0047219
0.00450025
0.00260432
0.00272735
0.00286354
0.0030147
0.00320741
0.00343728
0.0036688
0.00387743
0.00404717
0.00417306
0.00443236
0.00443942
0.00248023
0.0024031
0.00242881
0.00245985
0.00248139
0.00249564
0.00250756
0.00250672
0.00251889
0.00257146
0.00265816
0.00277512
0.00360329
0.00332406
0.00310792
0.00297734
0.00282265
0.0027205
0.00267509
0.00259702
0.00257592
0.00257444
0.00258927
0.00263235
0.00421487
0.00395063
0.00368939
0.00347288
0.00324374
0.00304923
0.00289902
0.00277927
0.00271732
0.002621
0.00259053
0.00258842
0.00431138
0.00414556
0.00394976
0.00374865
0.0035209
0.0032967
0.00309536
0.00290238
0.00280227
0.00272928
0.00264435
0.00255899
0.00289389
0.00300375
0.00310026
0.0032043
0.00334296
0.0034348
0.00358084
0.00378562
0.00404634
0.00445505
0.00500535
0.0025925
0.00269808
0.00277828
0.00287081
0.00300446
0.00313964
0.00329706
0.00347496
0.00367605
0.00390352
0.00428459
0.00506787
0.00399034
0.00261289
0.00267675
0.00277955
0.00292907
0.0030893
0.00327225
0.00347068
0.00368681
0.0039012
0.00415062
0.00472021
0.00449756
0.00260453
0.00272734
0.00286375
0.0030151
0.00320778
0.00343679
0.00366794
0.00387546
0.00404445
0.00416957
0.00442829
0.00443529
0.00247859
0.00240158
0.00242701
0.00245801
0.00247954
0.00249369
0.00250515
0.00250376
0.00251442
0.00256586
0.00265106
0.00276686
0.00360059
0.0033214
0.00310518
0.0029747
0.0028205
0.00271819
0.00267278
0.00259454
0.00257297
0.00257066
0.00258438
0.00262557
0.00421173
0.00394743
0.00368622
0.00346986
0.00324114
0.0030467
0.0028969
0.00277669
0.00271468
0.00261793
0.00258649
0.0025837
0.00430736
0.00414179
0.00394628
0.00374556
0.00351831
0.00329414
0.00309808
0.00289802
0.00279929
0.00272648
0.00264098
0.00255526
0.00288472
0.00299393
0.00309003
0.00319437
0.00333288
0.00342424
0.00357159
0.00377708
0.00403746
0.00444627
0.00499823
0.00259232
0.00269042
0.00276982
0.00286176
0.00299558
0.00313013
0.00328783
0.00346663
0.00366863
0.00389622
0.00427733
0.00506104
0.00398964
0.00260703
0.00266986
0.00277222
0.0029215
0.00308093
0.00326455
0.00346325
0.00367997
0.00389581
0.0041456
0.00471557
0.00449679
0.00259989
0.00272164
0.00285763
0.00300841
0.00320068
0.00342985
0.00366189
0.00387135
0.00404257
0.00416901
0.00442847
0.00443763
0.00401493
0.0038543
0.00367637
0.00348548
0.00327263
0.00306691
0.00292317
0.0027968
0.0027076
0.00266193
0.00264729
0.00269532
0.00375217
0.00360133
0.0034345
0.00324592
0.00304825
0.00290461
0.00280417
0.00270393
0.00264247
0.00262255
0.00263634
0.00271064
0.00353995
0.00339888
0.00323356
0.00304964
0.00290125
0.00280541
0.00271704
0.00262901
0.00257439
0.00252523
0.00246073
0.00239779
0.00338097
0.00324471
0.00308586
0.00292162
0.00281325
0.00273904
0.00264695
0.00254802
0.00244798
0.00228264
0.00199093
0.00157133
0.0028664
0.00309197
0.00328607
0.00351432
0.00374132
0.00393156
0.0040772
0.00416273
0.00419568
0.00419364
0.00421717
0.00414235
0.002892
0.00321014
0.00347453
0.00376086
0.00397953
0.00414367
0.0042258
0.00421518
0.004156
0.00407934
0.00400162
0.00388558
0.00248916
0.00311625
0.0035343
0.00384006
0.00405406
0.00417058
0.00420643
0.00415285
0.00404865
0.00393054
0.00380767
0.00367261
0.00140987
0.00277516
0.00342499
0.00380428
0.00399671
0.00409346
0.00410941
0.00403877
0.00391974
0.00378388
0.00364556
0.00350729
0.00400594
0.00384661
0.00366987
0.00348077
0.0032696
0.00306429
0.00292221
0.00279562
0.00270727
0.00266305
0.00264998
0.00269975
0.00374428
0.00359483
0.00342976
0.00324284
0.00304594
0.00290248
0.00280368
0.0027043
0.0026435
0.0026249
0.00263968
0.00271446
0.003533
0.00339371
0.00323015
0.0030477
0.0028997
0.00280408
0.00271741
0.00263035
0.00257618
0.00252788
0.0024637
0.00240059
0.00337496
0.00324088
0.0030836
0.00292039
0.0028136
0.00273878
0.00264803
0.00254983
0.00244998
0.00228501
0.00199308
0.00157283
0.0028702
0.00309652
0.00329024
0.0035187
0.00374706
0.00393882
0.00408586
0.00417269
0.00420622
0.0042046
0.00422829
0.00415201
0.0028955
0.00321304
0.00347685
0.00376406
0.00398424
0.00415037
0.00423464
0.00422571
0.00416725
0.00409069
0.0040124
0.00389493
0.0024918
0.00311786
0.00353571
0.00384249
0.00405837
0.00417712
0.0042156
0.00416389
0.00406056
0.00394207
0.00381843
0.00368173
0.00141134
0.00277589
0.00342576
0.00380625
0.00400071
0.00409984
0.00411883
0.00405009
0.00393194
0.00379553
0.00365618
0.00351633
0.00401415
0.00385333
0.00367516
0.00348403
0.00327112
0.00306587
0.0029226
0.00279672
0.00270834
0.00266334
0.00264943
0.00269882
0.00375194
0.00360101
0.00343389
0.00324512
0.00304752
0.00290432
0.00280432
0.00270469
0.00264394
0.00262453
0.00263879
0.00271358
0.00354038
0.00339923
0.00323371
0.00304967
0.00290147
0.00280585
0.00271792
0.00263043
0.00257623
0.00252724
0.0024628
0.00239982
0.00338223
0.00324576
0.00308682
0.00292266
0.00281433
0.00274019
0.00264846
0.00254985
0.00244989
0.00228439
0.00199239
0.00157246
0.00287009
0.00309647
0.00329079
0.0035195
0.00374707
0.00393776
0.00408343
0.00416869
0.00420113
0.00419879
0.00422218
0.00414653
0.00289486
0.00321345
0.0034784
0.0037655
0.00398481
0.00414933
0.00423128
0.00422024
0.00416049
0.00408317
0.00400488
0.00388814
0.00249103
0.00311856
0.00353754
0.00384429
0.00405899
0.00417588
0.00421138
0.00415731
0.00405252
0.00393339
0.00380969
0.00367391
0.00141093
0.0027767
0.00342786
0.00380815
0.0040013
0.00409845
0.00411396
0.00404262
0.00392301
0.00378592
0.00364661
0.00350764
0.00400917
0.00384893
0.0036713
0.0034811
0.00326881
0.00306346
0.0029211
0.00279361
0.00270534
0.00266009
0.00264583
0.00269419
0.00374606
0.00359591
0.00342987
0.00324199
0.00304468
0.00290152
0.00280176
0.00270154
0.00264065
0.00262101
0.00263502
0.00270951
0.00353362
0.00339357
0.00322915
0.00304584
0.002898
0.00280262
0.00271477
0.00262706
0.00257287
0.00252391
0.00245955
0.00239672
0.00337471
0.00323963
0.00308167
0.00291801
0.00281022
0.00273654
0.00264489
0.00254636
0.00244667
0.00228156
0.00198999
0.0015705
0.00286522
0.00309078
0.00328466
0.00351331
0.00374138
0.00393353
0.00408172
0.00417003
0.00420487
0.00420345
0.00422608
0.00415299
0.00289061
0.00320795
0.00347217
0.00375955
0.00397989
0.0041467
0.0042322
0.00422492
0.00416762
0.00409132
0.00401285
0.00389616
0.00248798
0.00311378
0.00353197
0.00383888
0.00405493
0.00417417
0.00421374
0.00416378
0.00406184
0.00394346
0.00381978
0.00368309
0.00140907
0.00277286
0.00342274
0.00380315
0.00399764
0.00409704
0.004117
0.00404987
0.00393312
0.00379692
0.0036576
0.00351743
0.00326841
0.00314094
0.00299744
0.00285866
0.00277108
0.00269276
0.00258194
0.00243819
0.00224343
0.00188833
0.00116877
0.000332842
0.0031938
0.00308198
0.00295535
0.00284002
0.00276239
0.00266128
0.00251105
0.00231547
0.00202838
0.00155634
0.000738451
0.000174757
0.00314612
0.00305263
0.00293936
0.00284627
0.00276985
0.00263364
0.00244924
0.00220356
0.00185333
0.0013473
0.000577001
0.00014153
0.00310866
0.00303229
0.0029341
0.00286608
0.00277545
0.00261321
0.00240195
0.00211811
0.00173681
0.00126749
0.000623526
0.000143672
0.00306072
0.002998
0.00292294
0.00287498
0.00276842
0.00259592
0.00236718
0.00206226
0.00167777
0.00127827
0.000725102
0.000149725
0.00298264
0.00293632
0.00288619
0.00285209
0.00273985
0.00256883
0.00233498
0.00202581
0.00165372
0.0012811
0.000784124
0.000155943
0.00285351
0.00282701
0.00280141
0.0027806
0.00267429
0.00251379
0.00228675
0.00198588
0.00162822
0.00124654
0.000779277
0.000162324
0.00264773
0.00264381
0.00264204
0.00263637
0.00254661
0.00240386
0.00219361
0.00190874
0.00156133
0.00116676
0.000723605
0.000165233
0.00232733
0.0023466
0.00236756
0.00237925
0.00231428
0.002195
0.00201077
0.00174878
0.00141376
0.00102769
0.000618957
0.000164227
0.00183028
0.00186874
0.00190567
0.0019345
0.00189827
0.00180684
0.00166255
0.00143881
0.00113734
0.000797464
0.000454594
0.000157025
0.00105729
0.00109629
0.00113409
0.00116329
0.00115282
0.00109843
0.00101713
0.00088915
0.00067377
0.000448085
0.000235297
0.000141198
0.000125132
0.000128672
0.000131539
0.000133483
0.000134501
0.000132876
0.00012841
0.000121251
0.000109436
9.21198e-05
7.28163e-05
4.6749e-05
0.000325706
0.00233963
0.00328388
0.00368442
0.00387131
0.00396234
0.00397173
0.00389844
0.00378044
0.00365031
0.00351597
0.00338548
0.000278532
0.00216995
0.00313447
0.00352196
0.00370797
0.00379807
0.00380831
0.00374467
0.00364482
0.00353119
0.00341273
0.00329806
0.000265381
0.00204486
0.00296448
0.00333175
0.00351769
0.00361109
0.00362848
0.00358553
0.00350984
0.00341971
0.00332485
0.0032321
0.000257167
0.00192955
0.00277226
0.00311675
0.00330269
0.00340345
0.0034347
0.00341498
0.00336694
0.00330527
0.00323846
0.00317153
0.000249428
0.00180397
0.00255742
0.00287561
0.00306102
0.00317147
0.00321986
0.00322501
0.00320624
0.00317513
0.00313803
0.00309851
0.000240651
0.00165902
0.00231709
0.00260538
0.00278844
0.00290877
0.00297504
0.003005
0.00301526
0.00301456
0.00300708
0.00299495
0.000229835
0.00148924
0.0020484
0.00230221
0.00247892
0.00260668
0.00268897
0.00274157
0.00277863
0.00280648
0.00282709
0.00284135
0.000216347
0.00128973
0.00174818
0.00196095
0.00212426
0.00225366
0.00234704
0.00241739
0.00247656
0.00252911
0.00257493
0.00261377
0.00019906
0.00105686
0.00141065
0.00157333
0.00171265
0.00183391
0.00192966
0.00200922
0.00208215
0.00215227
0.00221772
0.0022775
0.000179752
0.00077813
0.00102237
0.00112459
0.00122602
0.00131922
0.00140121
0.0014761
0.00155115
0.00162829
0.00170587
0.00177325
0.000156306
0.000441565
0.000534138
0.000570641
0.000629896
0.000688927
0.00074543
0.00079739
0.000850377
0.000906886
0.000963623
0.00101293
4.05617e-05
5.24205e-05
6.46842e-05
7.12834e-05
7.91414e-05
8.73108e-05
9.41312e-05
0.000100084
0.000105633
0.000110955
0.000115947
0.000120779
0.00326326
0.00313797
0.002996
0.00285747
0.00277075
0.00269324
0.00258349
0.00243991
0.00224537
0.00189033
0.00117005
0.000333051
0.0031894
0.00307961
0.00295428
0.00283903
0.00276207
0.00266223
0.00251258
0.00231703
0.00203011
0.00155797
0.000739547
0.000174826
0.00314223
0.00305046
0.00293824
0.00284533
0.00276983
0.00263456
0.00245047
0.00220483
0.00185468
0.00134846
0.000577777
0.000141505
0.00310512
0.00303011
0.00293279
0.0028651
0.00277533
0.00261375
0.00240271
0.00211893
0.00173764
0.00126809
0.000623778
0.000143622
0.00305723
0.00299557
0.00292128
0.00287374
0.00276788
0.00259586
0.00236733
0.00206248
0.00167797
0.00127829
0.000724952
0.000149665
0.00297913
0.00293363
0.00288419
0.00285045
0.00273876
0.0025681
0.00233445
0.00202537
0.0016533
0.00128057
0.000783566
0.000155876
0.00284993
0.00282411
0.00279908
0.00277854
0.00267266
0.00251245
0.00228559
0.00198485
0.00162728
0.00124566
0.000778491
0.000162249
0.00264428
0.00264094
0.00263959
0.00263409
0.00254465
0.00240211
0.00219203
0.00190733
0.00156008
0.00116567
0.000722806
0.000165152
0.00232439
0.00234406
0.00236532
0.0023771
0.0023123
0.00219317
0.00200909
0.00174728
0.00141243
0.00102661
0.000618231
0.000164153
0.00182803
0.00186691
0.00190405
0.0019329
0.00189669
0.00180533
0.00166118
0.00143755
0.00113617
0.00079655
0.000454021
0.000156955
0.00105632
0.00109551
0.0011334
0.00116258
0.00115196
0.00109755
0.00101634
0.000888427
0.00067295
0.000447517
0.000234982
0.000141141
0.000125013
0.000128579
0.000131458
0.000133416
0.000134454
0.000132828
0.000128363
0.000121206
0.000109394
9.20859e-05
7.27909e-05
4.67346e-05
0.000325746
0.00233975
0.00328426
0.00368598
0.00387502
0.00396862
0.00398122
0.00390995
0.00379262
0.00366186
0.00352654
0.00339437
0.000278434
0.00216988
0.0031345
0.00352316
0.00371142
0.00380424
0.00381765
0.00375592
0.00365654
0.00354266
0.00342312
0.00330693
0.000265291
0.00204486
0.00296418
0.00333265
0.00352088
0.00361706
0.00363731
0.00359625
0.00352128
0.00343095
0.00333517
0.00324094
0.00025709
0.00192956
0.00277175
0.0031174
0.00330559
0.00340907
0.00344299
0.00342515
0.00337797
0.00331625
0.0032486
0.00318042
0.000249371
0.00180399
0.00255676
0.00287604
0.00306361
0.00317664
0.00322755
0.00323455
0.00321675
0.00318573
0.00314803
0.00310737
0.000240604
0.00165903
0.00231631
0.00260559
0.00279069
0.00291343
0.00298204
0.00301381
0.00302511
0.00302465
0.00301672
0.00300367
0.000229801
0.00148919
0.00204752
0.00230223
0.00248079
0.00261075
0.00269518
0.00274951
0.00278764
0.00281584
0.00283621
0.00284967
0.00021633
0.00128959
0.00174725
0.0019608
0.00212575
0.00225707
0.00235234
0.00242426
0.00248447
0.00253745
0.00258313
0.00262138
0.000199038
0.00105668
0.00140973
0.00157308
0.00171374
0.0018366
0.0019339
0.0020148
0.00208864
0.0021592
0.00222457
0.00228395
0.000179729
0.00077808
0.0010216
0.00112437
0.00122676
0.00132106
0.00140417
0.00148017
0.00155592
0.00163347
0.0017109
0.0017777
0.000156282
0.000441438
0.000533671
0.000570467
0.000630311
0.000689976
0.00074709
0.000799565
0.000852908
0.000909504
0.000965899
0.00101501
4.05491e-05
5.24077e-05
6.46776e-05
7.13086e-05
7.92487e-05
8.74819e-05
9.43466e-05
0.00010032
0.000105877
0.000111188
0.000116141
0.000120947
0.00327043
0.00314273
0.00299921
0.00286059
0.0027729
0.00269453
0.00258387
0.00244033
0.00224539
0.00188989
0.00116965
0.00033301
0.00319659
0.00308444
0.00295775
0.00284265
0.00276485
0.00266342
0.00251327
0.00231781
0.00203047
0.00155802
0.00073976
0.00017491
0.00314958
0.00305559
0.00294223
0.00284946
0.00277235
0.00263587
0.00245167
0.00220599
0.0018555
0.001349
0.000579149
0.00014159
0.00311263
0.00303552
0.00293729
0.00286943
0.00277774
0.00261549
0.0024043
0.00212045
0.00173898
0.00126932
0.000625013
0.000143678
0.00306491
0.00300139
0.00292617
0.00287817
0.00277042
0.00259798
0.00236921
0.00206431
0.00167965
0.00127958
0.00072638
0.000149715
0.00298673
0.00293973
0.00288947
0.0028549
0.00274151
0.00257048
0.00233655
0.00202736
0.00165512
0.00128213
0.00078489
0.000155907
0.00285713
0.00283017
0.00280456
0.00278297
0.00267563
0.00251495
0.00228778
0.00198685
0.00162911
0.00124743
0.000779874
0.000162261
0.00265068
0.00264645
0.00264496
0.00263824
0.00254764
0.00240453
0.00219413
0.00190916
0.00156182
0.00116727
0.000724183
0.00016514
0.00232956
0.00234862
0.00236993
0.00238056
0.00231489
0.00219517
0.00201088
0.00174872
0.00141396
0.00102796
0.000619189
0.000164116
0.00183162
0.00187001
0.00190722
0.0019352
0.00189838
0.00180662
0.00166227
0.00143847
0.00113731
0.000797533
0.000454667
0.00015691
0.001058
0.00109689
0.00113466
0.00116345
0.00115255
0.00109802
0.00101673
0.000888714
0.000673665
0.000448068
0.000235289