/*--------------------------------*- C++ -*----------------------------------*\
| =========                 |                                                 |
| \\      /  F ield         | OpenFOAM: The Open Source CFD Toolbox           |
|  \\    /   O peration     | Version:  4.0                                   |
|   \\  /    A nd           | Web:      www.OpenFOAM.org                      |
|    \\/     M anipulation  |                                                 |
\*---------------------------------------------------------------------------*/
FoamFile
{
    version     2.0;
    format      ascii;
    class       volScalarField;
    location    "150";
    object      p;
}
// * * * * * * * * * * * * * * * * * * * * * * * * * * * * * * * * * * * * * //

dimensions      [0 2 -2 0 0 0 0];

internalField   nonuniform List<scalar> 
3072
(
0.00327478
-0.263035
-0.512144
-0.601163
-0.638571
-0.495017
-0.252334
-0.55734
-1.64485
-2.83357
-3.98141
-4.74909
0.588507
0.196131
0.0682637
0.112911
0.336355
0.799954
1.88351
2.37487
2.37519
2.19706
1.93153
1.65767
1.47625
1.10225
1.0826
1.38909
1.85436
2.2909
2.77014
2.91789
2.87376
2.72848
2.52909
2.35037
2.76287
2.56213
2.77284
3.23256
3.71247
4.06856
4.24816
4.33465
4.38849
4.38647
4.33489
4.2782
4.0385
4.02285
4.38594
4.88885
5.31065
5.55858
5.73546
5.8249
5.85128
5.8274
5.76974
5.70198
5.21803
5.36496
5.81074
6.32342
6.7357
6.98432
7.12581
7.17545
7.1656
7.11651
7.0452
6.96719
6.30911
6.62515
7.14502
7.72001
8.12609
8.34239
8.42649
8.42201
8.3669
8.284
8.18856
8.0927
7.40701
7.87085
8.46603
9.07184
9.4457
9.60527
9.62118
9.55405
9.44751
9.32799
9.20922
9.09886
8.53043
9.16351
9.78486
10.3448
10.6566
10.7371
10.6748
10.5451
10.3944
10.2475
10.1148
10
9.66861
10.449
11.0788
11.544
11.7369
11.7042
11.5592
11.3751
11.1951
11.0396
10.9117
10.8082
10.7852
11.8848
12.3852
12.6102
12.6393
12.4823
12.261
12.0386
11.8483
11.7054
11.6047
11.5343
11.4243
13.3156
13.5557
13.4148
13.2607
13.0105
12.7494
12.5292
12.3639
12.2623
12.2114
12.1952
-5.19921
-5.21676
-4.88599
-4.16996
-3.15586
-1.85812
-0.37774
1.17882
2.65455
4.01806
4.77191
4.48377
1.46458
1.3787
1.43244
1.61659
1.9414
2.39011
2.9502
3.54415
4.13325
4.91857
5.21818
4.20366
2.23421
2.22136
2.3328
2.55287
2.85376
3.21838
3.61637
3.97321
4.22455
4.49509
4.58453
3.01662
4.23736
4.22797
4.25631
4.32407
4.42462
4.54251
4.65786
4.71982
4.65325
4.48256
4.33382
2.26678
5.63893
5.59117
5.56351
5.55256
5.55763
5.5711
5.56748
5.50862
5.32642
4.97184
4.60491
2.36587
6.89188
6.82417
6.76563
6.716
6.6774
6.64147
6.58654
6.48294
6.27654
5.92548
5.5022
3.26593
8.00223
7.91952
7.84597
7.78233
7.73047
7.68457
7.63344
7.55509
7.41027
7.14011
6.77237
4.96344
8.99965
8.91098
8.83471
8.77147
8.72468
8.69612
8.6846
8.68001
8.66334
8.59009
8.51206
7.22637
9.90196
9.81513
9.7417
9.68359
9.64867
9.64696
9.68921
9.77911
9.92658
10.1202
10.4306
10.073
10.7237
10.6452
10.5777
10.5239
10.498
10.5182
10.6099
10.793
11.1088
11.5999
12.4933
13.3231
11.4798
11.4161
11.3555
11.3021
11.2757
11.3023
11.4222
11.6673
12.1107
12.8587
14.4339
16.9602
12.1853
12.1475
12.0924
12.0339
11.995
12.0085
12.1233
12.3652
12.8384
13.6764
15.4997
19.715
0.00545981
-0.259979
-0.508084
-0.596467
-0.633296
-0.491046
-0.248152
-0.542769
-1.62407
-2.80972
-3.95698
-4.72535
0.589863
0.1994
0.0707418
0.114831
0.338931
0.796935
1.87544
2.37399
2.37776
2.20415
1.94023
1.6678
1.47356
1.09975
1.07914
1.38338
1.84881
2.28496
2.76585
2.9201
2.8785
2.73625
2.53794
2.36006
2.75615
2.55457
2.76358
3.22372
3.70604
4.06509
4.24815
4.33681
4.39176
4.39131
4.34074
4.28474
4.03125
4.01416
4.37624
4.87982
5.30425
5.55596
5.73537
5.82668
5.85448
5.83184
5.77515
5.70787
5.21126
5.3563
5.80168
6.31526
6.73019
6.98165
7.12538
7.17706
7.16847
7.12072
7.05012
6.9727
6.30346
6.61736
7.13679
7.7119
8.12061
8.33927
8.42575
8.42312
8.36955
8.2878
8.1933
8.09791
7.40151
7.86351
8.45734
9.06324
9.43932
9.60148
9.6198
9.55467
9.44974
9.3315
9.21369
9.10389
8.52473
9.15635
9.77585
10.3359
10.6496
10.7327
10.6729
10.5452
10.3962
10.2506
10.119
10.0048
9.6624
10.4415
11.0696
11.535
11.7298
11.6996
11.5571
11.375
11.1965
11.0424
10.9156
10.8127
10.7788
11.8768
12.3759
12.6016
12.6327
12.4781
12.2591
12.0385
11.8497
11.708
11.6082
11.5384
11.4187
13.3071
13.5472
13.4074
13.2553
13.0072
12.748
12.5293
12.3653
12.2647
12.2146
12.1987
-5.17762
-5.19772
-4.87026
-4.1576
-3.147
-1.85233
-0.374642
1.17988
2.65419
4.01685
4.7701
4.48203
1.47437
1.38794
1.44028
1.62291
1.94601
2.39307
2.95168
3.54442
4.13272
4.91758
5.21681
4.20245
2.24368
2.2299
2.34002
2.55891
2.85842
3.22168
3.61836
3.97413
4.2248
4.49481
4.58401
3.01623
4.24403
4.23438
4.26207
4.32905
4.42861
4.5455
4.65987
4.72103
4.65388
4.48282
4.33387
2.26702
5.64507
5.59716
5.56899
5.55729
5.56146
5.57412
5.56962
5.51013
5.32749
4.97279
4.60479
2.36672
6.89745
6.82966
6.77078
6.72038
6.68116
6.64429
6.5887
6.48449
6.27782
5.92643
5.50205
3.26675
8.00761
7.92478
7.85082
7.78658
7.73393
7.68728
7.63539
7.55647
7.41107
7.14101
6.77243
4.96346
9.00484
8.91608
8.83934
8.77548
8.72789
8.69853
8.68619
8.681
8.66412
8.59027
8.51237
7.22641
9.90691
9.82001
9.74612
9.68735
9.65161
9.64904
9.69044
9.77977
9.92665
10.1206
10.4309
10.0733
10.7283
10.6499
10.5819
10.5274
10.5007
10.5199
10.6107
10.7932
11.1086
11.5997
12.4938
13.3242
11.4843
11.4207
11.3594
11.3054
11.2782
11.3038
11.4228
11.6672
12.1101
12.858
14.4346
16.9624
12.1896
12.1519
12.0961
12.0372
11.9973
12.01
12.1239
12.3652
12.8376
13.6755
15.4998
19.7196
0.0051328
-0.260641
-0.508826
-0.597008
-0.63405
-0.490398
-0.247939
-0.551538
-1.63987
-2.83056
-3.98102
-4.75117
0.589742
0.199323
0.0715893
0.116211
0.340434
0.802527
1.88401
2.37719
2.37742
2.19925
1.93275
1.658
1.47401
1.10065
1.08098
1.38729
1.85313
2.29007
2.76996
2.91927
2.87476
2.72917
2.52905
2.34956
2.75783
2.55664
2.76743
3.22866
3.71026
4.06769
4.24808
4.3347
4.3884
4.38617
4.33414
4.27696
4.03398
4.01742
4.38095
4.88523
5.30855
5.55777
5.73517
5.82481
5.85113
5.82704
5.76899
5.70074
5.21475
5.36044
5.80682
6.32067
6.73427
6.98377
7.12575
7.17557
7.16555
7.11616
7.04444
6.96594
6.30718
6.62174
7.14205
7.71796
8.12528
8.34229
8.42676
8.42234
8.36703
8.28379
8.1879
8.09154
7.40568
7.86815
8.46353
9.07019
9.44517
9.60546
9.62174
9.55459
9.44787
9.32797
9.20873
9.09783
8.52937
9.16125
9.78261
10.3434
10.6562
10.7375
10.6756
10.5459
10.395
10.2477
10.1145
9.99913
9.6675
10.4468
11.0769
11.5428
11.7366
11.7047
11.5601
11.3761
11.1959
11.04
10.9116
10.8075
10.784
11.8829
12.3837
12.6094
12.6393
12.483
12.2621
12.0397
11.8494
11.7061
11.6048
11.5338
11.4235
13.3139
13.5547
13.4149
13.2616
13.0118
12.7511
12.5308
12.3653
12.2633
12.2118
12.1948
-5.20349
-5.22246
-4.8925
-4.17641
-3.16158
-1.86236
-0.37992
1.1791
2.6573
4.0231
4.77868
4.4904
1.46385
1.37724
1.43044
1.61447
1.93951
2.38885
2.94997
3.54524
4.13568
4.92237
5.22311
4.2079
2.23254
2.21896
2.32995
2.54999
2.85106
3.21617
3.61489
3.97262
4.22483
4.49624
4.5864
3.01718
4.23558
4.22574
4.25373
4.3214
4.42191
4.54003
4.65575
4.71818
4.65206
4.48167
4.33335
2.2647
5.63717
5.58894
5.56085
5.54952
5.55449
5.56803
5.56461
5.50605
5.3241
4.96965
4.60313
2.36223
6.89014
6.82189
6.76281
6.71272
6.67402
6.63804
6.58324
6.47989
6.27375
5.9228
5.50058
3.2616
8.00052
7.91721
7.84304
7.77896
7.72685
7.68088
7.62989
7.55186
7.40753
7.13791
6.77051
4.96197
8.998
8.90867
8.83176
8.76802
8.72092
8.69227
8.68094
8.67684
8.66091
8.58867
8.5118
7.22691
9.9004
9.81285
9.73876
9.68011
9.64483
9.64304
9.68553
9.77606
9.92457
10.1197
10.4321
10.0767
10.7222
10.643
10.5748
10.5205
10.4941
10.5142
10.6062
10.7901
11.1071
11.6001
12.4969
13.3305
11.4786
11.4141
11.3527
11.2987
11.2719
11.2984
11.4186
11.6643
12.1091
12.8593
14.4389
16.9712
12.1843
12.1457
12.0898
12.0308
11.9914
12.0048
12.1198
12.3622
12.8365
13.6764
15.5041
19.7274
0.00206796
-0.263689
-0.512006
-0.600292
-0.637121
-0.494196
-0.251245
-0.548996
-1.63303
-2.82043
-3.96858
-4.73712
0.586307
0.195425
0.0669693
0.111293
0.335742
0.795606
1.8753
2.37202
2.37422
2.19888
1.93392
1.66077
1.46997
1.09575
1.07536
1.38017
1.8459
2.28226
2.7628
2.91533
2.87263
2.72927
2.53036
2.35225
2.75284
2.5509
2.76014
3.22055
3.7028
4.06134
4.24344
4.33141
4.38589
4.38494
4.3341
4.27801
4.02842
4.01098
4.37334
4.87717
5.30127
5.55179
5.73038
5.8211
5.84844
5.82539
5.76851
5.7012
5.20903
5.3535
5.79929
6.3131
6.72728
6.97772
7.12066
7.17168
7.16257
7.11445
7.04364
6.9662
6.30172
6.61481
7.1348
7.71037
8.11839
8.33612
8.42166
8.41822
8.36402
8.28181
8.18705
8.09158
7.40011
7.86117
8.45597
9.06276
9.43838
9.5994
9.61657
9.55044
9.44472
9.32591
9.20774
9.09779
8.52368
9.1543
9.77525
10.3363
10.6497
10.7317
10.6705
10.5417
10.3918
10.2455
10.1135
9.99904
9.66171
10.4401
11.0698
11.5363
11.7307
11.6993
11.5554
11.3721
11.1927
11.0379
10.9105
10.8073
10.7779
11.8761
12.3767
12.6033
12.6337
12.4779
12.2577
12.0359
11.8464
11.704
11.6036
11.5335
11.417
13.3071
13.5483
13.4088
13.2559
13.0067
12.7466
12.527
12.3623
12.2612
12.2106
12.1944
-5.18889
-5.20814
-4.87958
-4.16574
-3.15398
-1.85829
-0.37977
1.1754
2.65013
4.01306
4.76651
4.47841
1.46717
1.38082
1.43357
1.61671
1.94039
2.38801
2.94712
3.54028
4.12884
4.91393
5.2133
4.19889
2.23601
2.22274
2.33348
2.55292
2.85303
3.21685
3.61401
3.97011
4.22096
4.49118
4.58051
3.01275
4.23742
4.22806
4.25616
4.32355
4.42359
4.54091
4.65565
4.71709
4.65012
4.47921
4.33041
2.26348
5.63854
5.59088
5.56315
5.55196
5.55656
5.56959
5.56545
5.50618
5.32366
4.96894
4.60137
2.36284
6.89107
6.82358
6.76508
6.71519
6.67635
6.6399
6.5846
6.4806
6.27396
5.92249
5.49842
3.26266
8.0014
7.91884
7.84527
7.78148
7.72927
7.68302
7.63144
7.55269
7.40732
7.1371
6.76846
4.95906
8.99882
8.91029
8.83394
8.77052
8.7234
8.69445
8.68243
8.67739
8.66047
8.58637
8.50802
7.22158
9.90116
9.81442
9.74089
9.68254
9.64727
9.64515
9.68689
9.77637
9.92319
10.1167
10.4263
10.0678
10.7229
10.6445
10.5769
10.5228
10.4965
10.5162
10.6074
10.79
11.1055
11.5961
12.489
13.3182
11.4791
11.4155
11.3545
11.3008
11.2741
11.3002
11.4196
11.6643
12.1073
12.8549
14.43
16.9559
12.1848
12.1469
12.0914
12.0327
11.9932
12.0064
12.1206
12.3623
12.835
13.673
15.496
19.7132
14.0547
14.1989
13.9271
13.6741
13.4416
13.1904
12.973
12.8179
12.729
12.7131
12.7451
12.8073
13.722
13.3791
13.3323
13.2265
13.1167
13.0068
12.9286
12.9049
12.946
13.0602
13.2143
13.3937
13.2507
12.9993
12.9004
12.7966
12.7383
12.7295
12.772
12.8833
13.0655
13.3299
13.6318
13.9811
12.6786
12.435
12.2914
12.2132
12.2234
12.3277
12.5117
12.776
13.1242
13.5829
14.0841
14.629
12.8602
12.8567
12.8055
12.7344
12.6687
12.649
12.7251
12.914
13.2861
13.9211
14.6269
16.5676
13.5316
13.5549
13.5099
13.4148
13.3056
13.2296
13.2238
13.3328
13.5576
14.0056
14.2598
14.7917
14.2169
14.2487
14.2099
14.0851
13.9196
13.7643
13.6351
13.619
13.6477
13.8405
13.8592
13.883
15.1693
15.2054
15.0998
14.8924
14.6259
14.3443
14.0714
13.8475
13.5689
13.4236
13.201
13.0826
14.0492
14.1912
13.9198
13.6681
13.4372
13.188
12.972
12.8182
12.7304
12.7153
12.748
12.8105
13.7182
13.3738
13.3267
13.2217
13.113
13.0045
12.9276
12.9051
12.9471
13.062
13.2167
13.3965
13.248
12.9959
12.8964
12.7928
12.7351
12.7271
12.7705
12.8828
13.066
13.3312
13.6337
13.9835
12.6767
12.4329
12.2885
12.2101
12.2202
12.3249
12.5094
12.7746
13.1236
13.5833
14.0854
14.6309
12.8637
12.8608
12.8095
12.7376
12.6712
12.6507
12.7258
12.9141
13.2856
13.9195
14.6264
16.5703
13.5344
13.5585
13.5141
13.4181
13.3082
13.2315
13.225
13.3333
13.5577
14.005
14.2592
14.7936
14.2198
14.2521
14.2139
14.0886
13.9225
13.7666
13.6368
13.6198
13.6484
13.8407
13.8593
13.8841
15.1722
15.2086
15.1035
14.896
14.6289
14.3467
14.0732
13.8488
13.57
13.4244
13.2018
13.0833
14.0535
14.198
13.9271
13.6753
13.4435
13.1928
12.9755
12.8203
12.7311
12.7145
12.7457
12.8071
13.7219
13.3791
13.3328
13.2281
13.1191
13.0099
12.932
12.9082
12.9488
13.0622
13.2152
13.3938
13.2504
12.9996
12.9011
12.7984
12.7411
12.7331
12.776
12.8873
13.0691
13.3325
13.6332
13.9813
12.678
12.4353
12.2924
12.2152
12.2266
12.332
12.5166
12.7811
13.1287
13.5862
14.0858
14.6293
12.859
12.8553
12.8034
12.7316
12.6655
12.6456
12.7217
12.9107
13.2837
13.9198
14.6273
16.5724
13.5305
13.5536
13.5082
13.4123
13.3028
13.2264
13.2205
13.3296
13.555
14.0035
14.2581
14.7919
14.2162
14.2476
14.2085
14.0832
13.9172
13.7616
13.6321
13.6159
13.6445
13.8377
13.8562
13.8805
15.1689
15.2046
15.0988
14.8911
14.6241
14.342
14.0687
13.8445
13.5653
13.4197
13.1965
13.0782
14.0489
14.1918
13.9208
13.6691
13.4376
13.1874
12.9708
12.8163
12.7279
12.7123
12.7445
12.8066
13.717
13.3728
13.3262
13.2216
13.1129
13.0041
12.9269
12.9039
12.9454
13.0597
13.2137
13.3931
13.2452
12.9934
12.8946
12.7917
12.7347
12.727
12.7706
12.8827
13.0654
13.3297
13.6314
13.9803
12.6722
12.4289
12.2856
12.2083
12.2197
12.3256
12.5108
12.7761
13.1246
13.5831
14.0838
14.6283
12.8594
12.856
12.8046
12.733
12.667
12.6469
12.7224
12.9112
13.2832
13.9178
14.6245
16.5675
13.5306
13.554
13.5091
13.4134
13.3038
13.2274
13.2213
13.3302
13.5551
14.0033
14.2584
14.7927
14.216
14.2476
14.2089
14.0838
13.9179
13.7622
13.6327
13.6163
13.6455
13.8388
13.8583
13.8843
15.1683
15.2042
15.0986
14.891
14.6241
14.3421
14.0689
13.8449
13.5668
13.4224
13.2013
13.0843
12.6179
12.3933
12.2357
12.1641
12.1901
12.3157
12.5293
12.8224
13.1946
13.6336
14.1216
14.6007
12.9181
12.7235
12.5832
12.5131
12.5224
12.6136
12.7768
12.9974
13.2809
13.5825
13.9019
14.2363
13.1617
12.9965
12.8794
12.8218
12.8282
12.8997
13.0204
13.185
13.3744
13.5681
13.7759
14.0013
13.3881
13.2477
13.1494
13.1029
13.1077
13.1595
13.2406
13.3335
13.4415
13.562
13.6837
13.7304
15.2436
15.4136
15.4123
15.2484
14.9948
14.6871
14.3601
14.0362
13.6765
13.3938
13.0818
12.8972
14.9364
15.1239
15.1803
15.0865
14.9109
14.6924
14.4423
14.1836
13.8995
13.6453
13.3666
13.1616
14.8309
15.0264
15.1081
15.05
14.9182
14.7425
14.5355
14.3092
14.0598
13.8227
13.5737
13.3725
14.9182
15.0651
15.1042
15.0574
14.9468
14.7984
14.6188
14.418
14.1965
13.9789
13.7562
13.5689
12.617
12.3922
12.2341
12.1618
12.1874
12.313
12.5271
12.8208
13.1938
13.6336
14.1225
14.6022
12.9169
12.7225
12.5817
12.5114
12.5204
12.6118
12.7753
12.9965
13.2805
13.5829
13.9027
14.2375
13.1612
12.9961
12.8788
12.8209
12.8271
12.8987
13.0197
13.1847
13.3745
13.5688
13.7768
14.0024
13.3878
13.2479
13.1492
13.1027
13.1073
13.1592
13.2405
13.3336
13.4419
13.5628
13.6847
13.7314
15.2462
15.4166
15.4156
15.2519
14.998
14.6899
14.3622
14.0379
13.6778
13.3951
13.0825
12.898
14.9388
15.1268
15.1835
15.0897
14.9141
14.6951
14.4444
14.1853
13.9009
13.6465
13.368
13.1627
14.8333
15.0294
15.1113
15.0531
14.9211
14.745
14.5376
14.3109
14.0612
13.8242
13.5747
13.374
14.9207
15.0682
15.1073
15.0606
14.9496
14.8009
14.6207
14.4196
14.1978
13.98
13.7576
13.5701
12.6179
12.3939
12.237
12.1664
12.1936
12.3202
12.5345
12.8277
13.1993
13.6373
14.1239
14.6013
12.9185
12.7248
12.5851
12.5159
12.5261
12.6182
12.7819
13.0026
13.2854
13.5864
13.9047
14.2376
13.1628
12.9984
12.8819
12.8251
12.8323
12.9044
13.0254
13.1899
13.3787
13.5721
13.7789
14.0031
13.3896
13.2502
13.1523
13.1066
13.1119
13.1642
13.2454
13.3382
13.446
13.566
13.687
13.7331
15.243
15.4128
15.4113
15.2473
14.9932
14.6851
14.3575
14.0331
13.6729
13.3897
13.0772
12.8923
14.9361
15.1231
15.1792
15.0852
14.9094
14.6904
14.4398
14.1806
13.8961
13.6415
13.3624
13.1572
14.8308
15.0257
15.107
15.0486
14.9165
14.7405
14.5331
14.3064
14.0566
13.8191
13.5697
13.3685
14.918
15.0642
15.1031
15.0561
14.9451
14.7964
14.6164
14.4152
14.1934
13.9755
13.7525
13.5651
12.6122
12.3878
12.2306
12.1596
12.1867
12.3136
12.5285
12.8225
13.1951
13.6339
14.1216
14.6
12.9126
12.7186
12.5784
12.5092
12.5193
12.6117
12.7759
12.9973
13.2809
13.5828
13.902
14.2358
13.1572
12.9925
12.8757
12.8186
12.8257
12.898
13.0195
13.1847
13.3743
13.5685
13.776
14.001
13.3841
13.2445
13.1462
13.1004
13.1057
13.1581
13.2398
13.3331
13.4415
13.5623
13.6839
13.7306
15.2423
15.4123
15.4109
15.247
14.9932
14.6852
14.3578
14.0338
13.6742
13.3925
13.0813
12.8986
14.9353
15.1226
15.1789
15.0851
14.9094
14.6905
14.4401
14.1812
13.8972
13.6433
13.3656
13.1624
14.8297
15.0252
15.1067
15.0485
14.9165
14.7405
14.5333
14.3067
14.0572
13.8204
13.5715
13.3727
14.9168
15.0638
15.1027
15.0559
14.945
14.7964
14.6163
14.4152
14.1936
13.9758
13.7536
13.5682
13.6038
13.4871
13.4078
13.3715
13.3723
13.3891
13.4131
13.4417
13.4779
13.5173
13.5898
13.4203
13.8012
13.7065
13.6428
13.6074
13.5904
13.5731
13.5458
13.5077
13.4745
13.4435
13.5142
13.4552
13.9725
13.8935
13.8367
13.7996
13.7656
13.7122
13.633
13.5343
13.4444
13.3818
13.4328
13.4365
14.1152
14.0465
13.9938
13.9507
13.8953
13.8072
13.683
13.5351
13.4067
13.339
13.3728
13.417
14.2294
14.167
14.1152
14.0626
13.9861
13.8677
13.7077
13.5245
13.3745
13.3068
13.3383
13.4128
14.3184
14.2591
14.2056
14.1426
14.0475
13.905
13.7188
13.5139
13.3555
13.2929
13.337
13.4251
14.3863
14.3285
14.2721
14.1992
14.0893
13.929
13.7257
13.5097
13.3515
13.2984
13.3579
13.4546
14.4383
14.3812
14.3218
14.2409
14.12
13.9479
13.7346
13.5145
13.3613
13.3184
13.3918
13.4956
14.479
14.4233
14.362
14.2758
14.1478
13.9685
13.7499
13.5288
13.3817
13.3466
13.43
13.541
14.5144
14.4629
14.4035
14.3166
14.1853
14.0019
13.7784
13.5543
13.4095
13.375
13.4635
13.5847
14.5514
14.5095
14.4589
14.3789
14.249
14.0623
13.8308
13.595
13.4427
13.3988
13.4907
13.6219
14.5815
14.5481
14.5056
14.4313
14.3081
14.126
13.8928
13.6529
13.4749
13.4244
13.5139
13.6301
15.3247
15.2059
15.132
15.0768
14.9775
14.8484
14.6907
14.5125
14.3165
14.1208
13.9252
13.7576
15.3531
15.2569
15.1517
15.0959
15.0069
14.8928
14.7529
14.5943
14.421
14.2475
14.0768
13.9302
15.3535
15.2547
15.1664
15.1136
15.0341
14.9319
14.8066
14.6645
14.5107
14.3568
14.2085
14.0813
15.3362
15.2431
15.1761
15.1289
15.0583
14.9658
14.8523
14.724
14.5862
14.4493
14.3193
14.2083
15.3098
15.2286
15.1822
15.1416
15.0791
14.9944
14.8904
14.7732
14.6485
14.5252
14.4102
14.3117
15.2809
15.2131
15.1854
15.1517
15.0963
15.0178
14.9212
14.8129
14.6986
14.5864
14.4827
14.3936
15.254
15.1985
15.1864
15.1589
15.1094
15.0357
14.9448
14.8436
14.7379
14.6343
14.5396
14.4573
15.2328
15.187
15.1855
15.1633
15.1183
15.0482
14.9615
14.8662
14.7674
14.671
14.5834
14.5061
15.2203
15.18
15.1826
15.1641
15.1221
15.0541
14.9708
14.8804
14.788
14.6979
14.6168
14.5438
15.2165
15.1788
15.1757
15.1582
15.1172
15.0511
14.9707
14.8854
14.7992
14.7159
14.6423
14.5743
15.2196
15.1827
15.1646
15.1429
15.1006
15.0377
14.961
14.881
14.8014
14.7261
14.6617
14.6018
15.2298
15.1859
15.1562
15.1271
15.0848
15.0249
14.9518
14.8755
14.8012
14.7314
14.6713
14.6239
13.6045
13.4881
13.4085
13.3721
13.3726
13.3893
13.4133
13.442
13.4785
13.5182
13.5907
13.4213
13.8023
13.708
13.6439
13.6085
13.5912
13.5737
13.5462
13.5082
13.4751
13.4442
13.515
13.4561
13.9743
13.8955
13.8383
13.801
13.7667
13.713
13.6335
13.5347
13.4449
13.3825
13.4336
13.4373
14.1172
14.0488
13.9956
13.9522
13.8965
13.808
13.6835
13.5355
13.4072
13.3396
13.3735
13.4178
14.2318
14.1695
14.1172
14.0642
13.9873
13.8685
13.7081
13.5249
13.375
13.3075
13.3391
13.4136
14.3208
14.2616
14.2076
14.1441
14.0486
13.9057
13.7192
13.5143
13.356
13.2936
13.3378
13.426
14.3889
14.331
14.2741
14.2007
14.0903
13.9296
13.726
13.51
13.352
13.2991
13.3588
13.4555
14.4409
14.3836
14.3236
14.2423
14.1209
13.9484
13.7349
13.5148
13.3618
13.3192
13.3928
13.4966
14.4814
14.4255
14.3637
14.277
14.1486
13.9689
13.7501
13.5291
13.3823
13.3474
13.4309
13.542
14.5168
14.4649
14.405
14.3177
14.186
14.0022
13.7785
13.5546
13.41
13.3758
13.4645
13.5857
14.5536
14.5112
14.4602
14.3798
14.2494
14.0624
13.8308
13.5952
13.4432
13.3996
13.4917
13.6229
14.5834
14.5497
14.5067
14.4321
14.3085
14.1261
13.8928
13.653
13.4754
13.4252
13.5149
13.6312
15.3275
15.209
15.1352
15.0798
14.9803
14.8508
14.6926
14.514
14.3177
14.122
13.9262
13.7589
15.356
15.26
15.1549
15.0989
15.0096
14.8951
14.7548
14.5958
14.4222
14.2484
14.078
13.9312
15.3565
15.2578
15.1695
15.1165
15.0367
14.9341
14.8084
14.6659
14.5117
14.3577
14.2092
14.0822
15.3393
15.2462
15.1792
15.1319
15.061
14.968
14.8541
14.7254
14.5873
14.4501
14.3202
14.209
15.313
15.2318
15.1853
15.1446
15.0818
14.9967
14.8922
14.7746
14.6495
14.5261
14.4108
14.3125
15.2841
15.2163
15.1885
15.1546
15.099
15.0201
14.923
14.8143
14.6998
14.5873
14.4835
14.3943
15.2572
15.2017
15.1896
15.1619
15.1121
15.0381
14.9468
14.8452
14.7391
14.6353
14.5403
14.458
15.236
15.1902
15.1887
15.1663
15.1211
15.0506
14.9635
14.8678
14.7687
14.6721
14.5843
14.5069
15.2235
15.1831
15.1857
15.1672
15.1249
15.0566
14.9728
14.8822
14.7893
14.699
14.6178
14.5447
15.2196
15.1819
15.1789
15.1612
15.12
15.0536
14.9728
14.8872
14.8007
14.7172
14.6433
14.5752
15.2227
15.1857
15.1677
15.146
15.1034
15.0401
14.9632
14.8828
14.8029
14.7274
14.6628
14.6028
15.2328
15.1889
15.1593
15.1301
15.0876
15.0274
14.9539
14.8774
14.8028
14.7328
14.6725
14.625
13.606
13.4901
13.4111
13.3754
13.3765
13.3935
13.4176
13.4463
13.4823
13.5214
13.5934
13.4239
13.8036
13.7098
13.6462
13.6112
13.5945
13.5774
13.5501
13.5122
13.4789
13.4476
13.5177
13.4587
13.9753
13.8969
13.8401
13.8034
13.7695
13.7162
13.6371
13.5386
13.4488
13.386
13.4364
13.44
14.1181
14.0499
13.9972
13.9542
13.8989
13.8109
13.687
13.5394
13.4112
13.3432
13.3766
13.4206
14.2325
14.1704
14.1184
14.0659
13.9894
13.8713
13.7116
13.5289
13.3791
13.3112
13.3424
13.4166
14.3215
14.2625
14.2087
14.1456
14.0506
13.9084
13.7227
13.5184
13.3601
13.2975
13.3412
13.429
14.3896
14.3318
14.275
14.2021
14.0921
13.9323
13.7294
13.5141
13.3562
13.303
13.3621
13.4585
14.4416
14.3844
14.3246
14.2436
14.1227
13.951
13.7383
13.5188
13.366
13.323
13.396
13.4995
14.4822
14.4263
14.3646
14.2783
14.1503
13.9716
13.7534
13.5332
13.3863
13.3511
13.4341
13.5448
14.5177
14.4658
14.406
14.3189
14.1877
14.0048
13.7818
13.5585
13.4139
13.3795
13.4675
13.5883
14.5545
14.5122
14.4613
14.3811
14.2511
14.0649
13.8341
13.599
13.447
13.4032
13.4947
13.6254
14.5844
14.5507
14.5078
14.4333
14.3101
14.1284
13.8959
13.6567
13.4792
13.4286
13.5177
13.6336
15.3238
15.2048
15.1308
15.0754
14.9758
14.8464
14.6884
14.5098
14.3135
14.1176
13.9218
13.754
15.3519
15.2556
15.1504
15.0945
15.0052
14.8908
14.7507
14.5918
14.4182
14.2444
14.0736
13.9268
15.3522
15.2533
15.165
15.112
15.0323
14.9299
14.8043
14.662
14.5079
14.3538
14.2054
14.0781
15.3348
15.2416
15.1746
15.1274
15.0566
14.9639
14.8502
14.7216
14.5836
14.4465
14.3164
14.2053
15.3084
15.2271
15.1806
15.14
15.0774
14.9926
14.8883
14.7709
14.6459
14.5225
14.4074
14.3089
15.2794
15.2115
15.1838
15.1501
15.0946
15.016
14.9191
14.8106
14.6962
14.5839
14.4801
14.391
15.2525
15.1969
15.1848
15.1573
15.1078
15.0339
14.9428
14.8415
14.7355
14.6318
14.5371
14.4548
15.2313
15.1854
15.1839
15.1617
15.1166
15.0464
14.9595
14.8641
14.7652
14.6687
14.581
14.5037
15.2187
15.1784
15.1809
15.1625
15.1204
15.0524
14.9688
14.8784
14.7857
14.6956
14.6145
14.5415
15.2149
15.1772
15.1741
15.1566
15.1155
15.0494
14.9687
14.8834
14.797
14.7137
14.64
14.5721
15.218
15.1811
15.163
15.1413
15.0989
15.0359
14.9591
14.8789
14.7993
14.7239
14.6595
14.5997
15.2282
15.1843
15.1546
15.1254
15.0831
15.0232
14.9498
14.8735
14.7991
14.7293
14.6691
14.6218
13.601
13.4849
13.4056
13.3697
13.3708
13.3879
13.4123
13.4412
13.4779
13.5177
13.5901
13.4211
13.799
13.7049
13.6412
13.6061
13.5892
13.5721
13.5449
13.5072
13.4745
13.4439
13.5146
13.4558
13.9712
13.8926
13.8357
13.7988
13.7647
13.7113
13.6321
13.5337
13.4444
13.3823
13.4334
13.437
14.1143
14.046
13.9931
13.95
13.8945
13.8062
13.6821
13.5345
13.4067
13.3395
13.3734
13.4176
14.229
14.167
14.1148
14.062
13.9853
13.8667
13.7067
13.5239
13.3745
13.3073
13.339
13.4134
14.3182
14.2592
14.2053
14.142
14.0467
13.9039
13.7178
13.5133
13.3555
13.2935
13.3377
13.4257
14.3865
14.3287
14.2719
14.1987
14.0884
13.9279
13.7246
13.509
13.3515
13.2989
13.3585
13.4551
14.4385
14.3814
14.3215
14.2403
14.119
13.9467
13.7335
13.5138
13.3613
13.3189
13.3924
13.4961
14.4792
14.4233
14.3616
14.2751
14.1467
13.9673
13.7487
13.5281
13.3817
13.347
13.4305
13.5413
14.5146
14.4628
14.403
14.3158
14.1842
14.0006
13.7771
13.5535
13.4093
13.3754
13.4639
13.585
14.5515
14.5092
14.4583
14.378
14.2476
14.0608
13.8294
13.5941
13.4424
13.3991
13.4912
13.6221
14.5814
14.5478
14.5049
14.4303
14.3067
14.1244
13.8913
13.6518
13.4747
13.4246
13.5143
13.6303
15.3225
15.2042
15.1304
15.0751
14.9756
14.8462
14.6881
14.5095
14.3132
14.1175
13.9216
13.7561
15.3509
15.255
15.1501
15.0942
15.0049
14.8905
14.7503
14.5912
14.4176
14.2436
14.073
13.928
15.3514
15.2528
15.1647
15.1118
15.0321
14.9295
14.8038
14.6613
14.5071
14.3529
14.2041
14.0786
15.3342
15.2412
15.1744
15.1271
15.0563
14.9635
14.8496
14.7208
14.5827
14.4453
14.3151
14.2052
15.3079
15.2268
15.1804
15.1398
15.0771
14.9922
14.8877
14.7701
14.645
14.5213
14.4058
14.3085
15.279
15.2112
15.1836
15.1498
15.0943
15.0156
14.9186
14.8099
14.6953
14.5826
14.4786
14.3903
15.2522
15.1967
15.1846
15.1571
15.1075
15.0336
14.9424
14.8408
14.7347
14.6308
14.5356
14.454
15.231
15.1852
15.1837
15.1615
15.1164
15.0461
14.9592
14.8635
14.7644
14.6677
14.5798
14.5029
15.2185
15.1782
15.1808
15.1623
15.1203
15.0521
14.9685
14.8778
14.7851
14.6947
14.6134
14.5408
15.2147
15.177
15.1739
15.1564
15.1154
15.0491
14.9684
14.8829
14.7964
14.7129
14.6392
14.5715
15.2177
15.1808
15.1628
15.1411
15.0988
15.0357
14.9588
14.8784
14.7987
14.7231
14.6587
14.5992
15.2279
15.184
15.1544
15.1253
15.083
15.023
14.9495
14.873
14.7985
14.7286
14.6684
14.6215
)
;

boundaryField
{
    rotor
    {
        type            zeroGradient;
    }
    stator
    {
        type            zeroGradient;
    }
    front
    {
        type            empty;
    }
    back
    {
        type            empty;
    }
}


// ************************************************************************* //
