/*--------------------------------*- C++ -*----------------------------------*\
| =========                 |                                                 |
| \\      /  F ield         | OpenFOAM: The Open Source CFD Toolbox           |
|  \\    /   O peration     | Version:  4.0                                   |
|   \\  /    A nd           | Web:      www.OpenFOAM.org                      |
|    \\/     M anipulation  |                                                 |
\*---------------------------------------------------------------------------*/
FoamFile
{
    version     2.0;
    format      ascii;
    class       surfaceScalarField;
    location    "150";
    object      phi;
}
// * * * * * * * * * * * * * * * * * * * * * * * * * * * * * * * * * * * * * //

dimensions      [0 3 -1 0 0 0 0];

internalField   nonuniform List<scalar> 
5952
(
7.20959e-06
-7.29397e-06
1.24537e-05
-5.24642e-06
1.51756e-05
-2.72074e-06
1.34934e-05
1.68383e-06
5.808e-06
7.6855e-06
-1.0616e-05
1.64257e-05
-3.51728e-05
2.45563e-05
-5.60748e-05
2.09027e-05
-7.29296e-05
1.68544e-05
-8.61523e-05
1.32227e-05
-9.62631e-05
1.01106e-05
7.02699e-06
-0.00010329
3.6045e-06
-1.09011e-05
3.03517e-06
-4.67897e-06
-3.56001e-06
3.87353e-06
-1.80992e-05
1.62232e-05
-3.74892e-05
2.70755e-05
-5.29643e-05
3.19014e-05
-6.01112e-05
3.17033e-05
-6.63899e-05
2.71817e-05
-7.23169e-05
2.27815e-05
-7.74739e-05
1.83798e-05
-8.13013e-05
1.3938e-05
9.81949e-06
-8.4094e-05
-1.57745e-06
-9.32562e-06
-7.69573e-06
1.43756e-06
-1.96063e-05
1.57833e-05
-3.28641e-05
2.94809e-05
-4.25335e-05
3.67449e-05
-4.83688e-05
3.7737e-05
-5.20123e-05
3.5347e-05
-5.56053e-05
3.0775e-05
-5.86499e-05
2.58262e-05
-6.11571e-05
2.0887e-05
-6.32724e-05
1.60532e-05
1.15189e-05
-6.4972e-05
-5.85027e-06
-3.4772e-06
-1.42022e-05
9.78817e-06
-2.2981e-05
2.45614e-05
-3.02132e-05
3.67131e-05
-3.50604e-05
4.15921e-05
-3.82934e-05
4.09704e-05
-4.03173e-05
3.73711e-05
-4.20035e-05
3.24616e-05
-4.3638e-05
2.74609e-05
-4.52452e-05
2.24943e-05
-4.67756e-05
1.75838e-05
1.28059e-05
-4.80625e-05
-6.63337e-06
3.15212e-06
-1.29098e-05
1.60633e-05
-1.82595e-05
2.99105e-05
-2.22465e-05
4.07e-05
-2.45828e-05
4.39285e-05
-2.57548e-05
4.21428e-05
-2.65152e-05
3.81317e-05
-2.74463e-05
3.33931e-05
-2.85284e-05
2.85432e-05
-2.97005e-05
2.36668e-05
-3.08869e-05
1.87703e-05
1.38723e-05
-3.1953e-05
-5.25911e-06
8.40712e-06
-9.38775e-06
2.01898e-05
-1.19669e-05
3.24883e-05
-1.3037e-05
4.17692e-05
-1.30945e-05
4.39856e-05
-1.28168e-05
4.18644e-05
-1.27721e-05
3.80868e-05
-1.3113e-05
3.37336e-05
-1.37734e-05
2.92037e-05
-1.46537e-05
2.45468e-05
-1.56394e-05
1.9756e-05
1.48295e-05
-1.65969e-05
-3.43946e-06
1.18395e-05
-5.46591e-06
2.2213e-05
-5.45301e-06
3.24733e-05
-3.87126e-06
4.01861e-05
-1.82544e-06
4.1938e-05
-2.34357e-07
4.02724e-05
6.61193e-07
3.71899e-05
8.9021e-07
3.3504e-05
5.99596e-07
2.94933e-05
-5.03592e-08
2.51963e-05
-9.03864e-07
2.06087e-05
1.57345e-05
-1.80938e-06
-2.6359e-06
1.44722e-05
-2.7335e-06
2.23087e-05
-1.01574e-07
2.98397e-05
4.3443e-06
3.57387e-05
8.54716e-06
3.77338e-05
1.16249e-05
3.71935e-05
1.3498e-05
3.5316e-05
1.43525e-05
3.26487e-05
1.44394e-05
2.94059e-05
1.3999e-05
2.56362e-05
1.32453e-05
2.13619e-05
1.66141e-05
1.23653e-05
-2.89171e-06
1.73619e-05
-1.73908e-06
2.11551e-05
3.68193e-06
2.44179e-05
1.08968e-05
2.8523e-05
1.74373e-05
3.11924e-05
2.22825e-05
3.23476e-05
2.53727e-05
3.22252e-05
2.70056e-05
3.10153e-05
2.75455e-05
2.88656e-05
2.73407e-05
2.58407e-05
2.66899e-05
2.20125e-05
1.74655e-05
2.58382e-05
-5.79479e-06
2.31581e-05
-1.019e-06
1.63794e-05
8.03642e-06
1.53625e-05
1.74679e-05
1.90911e-05
2.57483e-05
2.29115e-05
3.20616e-05
2.60335e-05
3.62999e-05
2.79865e-05
3.87303e-05
2.85845e-05
3.97671e-05
2.78287e-05
3.98361e-05
2.57714e-05
3.93079e-05
2.25406e-05
1.82727e-05
3.85006e-05
-1.41475e-07
2.33022e-05
1.00686e-05
6.17045e-06
2.06623e-05
4.76902e-06
2.98878e-05
9.86543e-06
3.75462e-05
1.52527e-05
4.34851e-05
2.0094e-05
4.76704e-05
2.38006e-05
5.0232e-05
2.60224e-05
5.14206e-05
2.66396e-05
5.15932e-05
2.55984e-05
5.11085e-05
2.3025e-05
1.90681e-05
5.03126e-05
3.34149e-05
-1.01122e-05
4.40961e-05
-4.50998e-06
4.94564e-05
-5.91139e-07
5.38623e-05
5.45941e-06
5.73632e-05
1.17513e-05
6.00616e-05
1.73952e-05
6.20004e-05
2.18612e-05
6.31428e-05
2.48797e-05
6.3478e-05
2.63041e-05
6.31494e-05
2.59267e-05
6.2353e-05
2.38211e-05
6.13723e-05
2.00485e-05
-0.000107669
4.37824e-06
-0.000109407
1.73747e-06
-0.0001088
-6.06707e-07
-0.00010592
-2.88091e-06
-0.000100819
-5.10112e-06
-9.3277e-05
-7.54267e-06
-8.32136e-05
-1.00638e-05
-7.03741e-05
-1.28401e-05
-5.45884e-05
-1.57862e-05
-3.58421e-05
-1.8747e-05
-1.56422e-05
-2.02013e-05
-1.56427e-05
-8.57157e-05
5.99982e-06
-8.6372e-05
2.3934e-06
-8.5934e-05
-1.04492e-06
-8.43248e-05
-4.49074e-06
-8.12948e-05
-8.13145e-06
-7.68008e-05
-1.20374e-05
-7.05969e-05
-1.62683e-05
-6.2497e-05
-2.09407e-05
-5.21181e-05
-2.61656e-05
-3.89768e-05
-3.18889e-05
-2.26478e-05
-3.65313e-05
-3.82908e-05
-6.61597e-05
7.18754e-06
-6.6722e-05
2.95525e-06
-6.6465e-05
-1.30201e-06
-6.52274e-05
-5.72896e-06
-6.29316e-05
-1.04276e-05
-5.94878e-05
-1.54819e-05
-5.47519e-05
-2.10048e-05
-4.85819e-05
-2.71113e-05
-4.08166e-05
-3.39315e-05
-3.10589e-05
-4.16472e-05
-1.80971e-05
-4.94937e-05
-5.63879e-05
-4.89707e-05
8.09578e-06
-4.93723e-05
3.35684e-06
-4.91631e-05
-1.51132e-06
-4.82589e-05
-6.63335e-06
-4.65951e-05
-1.20916e-05
-4.41316e-05
-1.79459e-05
-4.07744e-05
-2.43624e-05
-3.64322e-05
-3.14542e-05
-3.09552e-05
-3.94087e-05
-2.41684e-05
-4.84342e-05
-1.47719e-05
-5.88903e-05
-7.11601e-05
-3.27755e-05
8.91837e-06
-3.32537e-05
3.83513e-06
-3.33085e-05
-1.45656e-06
-3.28738e-05
-7.06818e-06
-3.19234e-05
-1.30422e-05
-3.04234e-05
-1.94463e-05
-2.83172e-05
-2.6469e-05
-2.55329e-05
-3.42386e-05
-2.19517e-05
-4.29902e-05
-1.71991e-05
-5.31874e-05
-1.05114e-05
-6.5579e-05
-8.16719e-05
-1.74116e-05
9.73304e-06
-1.79986e-05
4.42178e-06
-1.82946e-05
-1.16093e-06
-1.82963e-05
-7.06704e-06
-1.80011e-05
-1.3338e-05
-1.73584e-05
-2.00898e-05
-1.63587e-05
-2.74694e-05
-1.49733e-05
-3.56249e-05
-1.31463e-05
-4.48188e-05
-1.08025e-05
-5.55323e-05
-7.16936e-06
-6.92134e-05
-8.88425e-05
-2.64875e-06
1.05717e-05
-3.34943e-06
5.1218e-06
-3.88317e-06
-6.27999e-07
-4.25911e-06
-6.6921e-06
-4.48186e-06
-1.31164e-05
-4.56091e-06
-2.00118e-05
-4.517e-06
-2.75147e-05
-4.38104e-06
-3.57624e-05
-4.19092e-06
-4.50094e-05
-3.94399e-06
-5.57815e-05
-3.24721e-06
-6.99126e-05
-9.20902e-05
1.14971e-05
1.14396e-05
1.07079e-05
5.91042e-06
1.0014e-05
6.52249e-08
9.39139e-06
-6.07047e-06
8.80281e-06
-1.25288e-05
8.19934e-06
-1.94096e-05
7.51306e-06
-2.68294e-05
6.62665e-06
-3.48767e-05
5.38362e-06
-4.37685e-05
3.60743e-06
-5.40059e-05
1.11947e-06
-6.74255e-05
-9.09718e-05
2.49655e-05
1.2312e-05
2.41463e-05
6.72914e-06
2.33955e-05
8.15251e-07
2.2679e-05
-5.35487e-06
2.19385e-05
-1.17893e-05
2.10945e-05
-1.85666e-05
2.00248e-05
-2.57604e-05
1.84936e-05
-3.33465e-05
1.61677e-05
-4.14422e-05
1.25771e-05
-5.04164e-05
7.27553e-06
-6.21254e-05
-8.36964e-05
3.76628e-05
1.31496e-05
3.68828e-05
7.50875e-06
3.61887e-05
1.50851e-06
3.55525e-05
-4.71932e-06
3.49171e-05
-1.11548e-05
3.41911e-05
-1.78412e-05
3.32029e-05
-2.47727e-05
3.15525e-05
-3.16959e-05
2.86663e-05
-3.85566e-05
2.37076e-05
-4.54578e-05
1.52891e-05
-5.37068e-05
-6.84075e-05
4.95295e-05
1.39319e-05
4.88453e-05
8.19215e-06
4.83208e-05
2.03192e-06
4.79536e-05
-4.35321e-06
4.77178e-05
-1.092e-05
4.7535e-05
-1.7659e-05
4.72029e-05
-2.44411e-05
4.61134e-05
-3.06067e-05
4.34839e-05
-3.5927e-05
3.80572e-05
-4.00309e-05
2.64107e-05
-4.20605e-05
-4.19966e-05
6.05687e-05
1.4735e-05
6.00212e-05
8.73893e-06
5.97751e-05
2.27717e-06
5.9901e-05
-4.48008e-06
6.04133e-05
-1.14327e-05
6.12461e-05
-1.84923e-05
6.21584e-05
-2.53536e-05
6.23162e-05
-3.07645e-05
6.10122e-05
-3.46229e-05
5.66181e-05
-3.56369e-05
4.40779e-05
-2.952e-05
2.08127e-06
7.2741e-06
-7.27656e-06
1.2472e-05
-5.19967e-06
1.51941e-05
-2.72602e-06
1.35423e-05
1.64972e-06
5.91408e-06
7.6248e-06
-1.03586e-05
1.62722e-05
-3.48631e-05
2.45029e-05
-5.58115e-05
2.09486e-05
-7.26805e-05
1.68683e-05
-8.59309e-05
1.32504e-05
-9.60615e-05
1.01303e-05
7.05232e-06
-0.000103114
3.59277e-06
-1.08722e-05
3.08505e-06
-4.69388e-06
-3.43565e-06
3.79197e-06
-1.78745e-05
1.60875e-05
-3.72284e-05
2.69778e-05
-5.27961e-05
3.18397e-05
-5.99881e-05
3.16945e-05
-6.6246e-05
2.72065e-05
-7.2173e-05
2.2795e-05
-7.73312e-05
1.84084e-05
-8.11683e-05
1.39672e-05
9.85332e-06
-8.39694e-05
-1.52522e-06
-9.34781e-06
-7.56964e-06
1.34949e-06
-1.9435e-05
1.56564e-05
-3.27006e-05
2.93528e-05
-4.23973e-05
3.66742e-05
-4.82696e-05
3.7712e-05
-5.19168e-05
3.53415e-05
-5.54927e-05
3.07825e-05
-5.85389e-05
2.58411e-05
-6.10444e-05
2.0914e-05
-6.31618e-05
1.60846e-05
1.15555e-05
-6.48641e-05
-5.80301e-06
-3.54621e-06
-1.41302e-05
9.6758e-06
-2.29026e-05
2.44283e-05
-3.01422e-05
3.65925e-05
-3.49905e-05
4.15225e-05
-3.82168e-05
4.09386e-05
-4.02368e-05
3.73616e-05
-4.1916e-05
3.24619e-05
-4.35454e-05
2.74705e-05
-4.51465e-05
2.25153e-05
-4.66757e-05
1.76138e-05
1.28444e-05
-4.79644e-05
-6.61512e-06
3.06541e-06
-1.28933e-05
1.59521e-05
-1.82411e-05
2.97757e-05
-2.22203e-05
4.05711e-05
-2.45467e-05
4.38495e-05
-2.57078e-05
4.20995e-05
-2.64542e-05
3.81088e-05
-2.73754e-05
3.33828e-05
-2.84497e-05
2.85454e-05
-2.96167e-05
2.36821e-05
-3.0801e-05
1.87985e-05
1.39119e-05
-3.18687e-05
-5.26371e-06
8.31992e-06
-9.38969e-06
2.00762e-05
-1.19763e-05
3.23591e-05
-1.30427e-05
4.16377e-05
-1.30895e-05
4.38948e-05
-1.27944e-05
4.18049e-05
-1.27349e-05
3.8048e-05
-1.30633e-05
3.37116e-05
-1.37156e-05
2.91967e-05
-1.45896e-05
2.45563e-05
-1.5573e-05
1.97811e-05
1.48696e-05
-1.65308e-05
-3.46448e-06
1.17809e-05
-5.50567e-06
2.2113e-05
-5.48969e-06
3.23425e-05
-3.90689e-06
4.00528e-05
-1.84747e-06
4.18341e-05
-2.40511e-07
4.01962e-05
6.70949e-07
3.71357e-05
9.1246e-07
3.34687e-05
6.31723e-07
2.94767e-05
-1.17966e-08
2.51987e-05
-8.61506e-07
2.063e-05
1.57735e-05
-1.76648e-06
-2.67522e-06
1.44515e-05
-2.79363e-06
2.22307e-05
-1.69975e-07
2.97161e-05
4.27691e-06
3.56042e-05
8.49239e-06
3.76172e-05
1.15866e-05
3.71006e-05
1.34752e-05
3.5246e-05
1.4343e-05
3.26e-05
1.44404e-05
2.93785e-05
1.40077e-05
2.56306e-05
1.32591e-05
2.13779e-05
1.66507e-05
1.23812e-05
-2.92243e-06
1.73729e-05
-1.79392e-06
2.10998e-05
3.60649e-06
2.43154e-05
1.08103e-05
2.83993e-05
1.73543e-05
3.10722e-05
2.22114e-05
3.22426e-05
2.53154e-05
3.21411e-05
2.69612e-05
3.09535e-05
2.75122e-05
2.88268e-05
2.73164e-05
2.58258e-05
2.66721e-05
2.20216e-05
1.74978e-05
2.58243e-05
-5.79502e-06
2.31672e-05
-1.03777e-06
1.63432e-05
7.98554e-06
1.52911e-05
1.73921e-05
1.89924e-05
2.56607e-05
2.2803e-05
3.19734e-05
2.59292e-05
3.62177e-05
2.78961e-05
3.86568e-05
2.85137e-05
3.97026e-05
2.77804e-05
3.97803e-05
2.57477e-05
3.92593e-05
2.25423e-05
1.82997e-05
3.84569e-05
-1.30198e-07
2.32976e-05
1.00663e-05
6.14597e-06
2.06365e-05
4.72132e-06
2.98386e-05
9.79019e-06
3.74783e-05
1.5163e-05
4.34045e-05
2.00025e-05
4.75838e-05
2.37161e-05
5.01449e-05
2.59519e-05
5.13364e-05
2.65882e-05
5.15135e-05
2.557e-05
5.10341e-05
2.3021e-05
1.90902e-05
5.02427e-05
3.34172e-05
-1.01198e-05
4.40963e-05
-4.53279e-06
4.9448e-05
-6.30462e-07
5.38369e-05
5.40123e-06
5.73189e-05
1.16809e-05
5.99998e-05
1.73212e-05
6.19249e-05
2.17906e-05
6.30577e-05
2.48185e-05
6.33876e-05
2.62578e-05
6.30573e-05
2.58998e-05
6.22618e-05
2.38158e-05
6.12829e-05
2.00685e-05
-0.000107515
4.40098e-06
-0.000109277
1.76165e-06
-0.000108691
-5.86276e-07
-0.00010583
-2.86094e-06
-0.000100748
-5.08215e-06
-9.32234e-05
-7.52556e-06
-8.31752e-05
-1.00484e-05
-7.03482e-05
-1.28274e-05
-5.45724e-05
-1.5776e-05
-3.58331e-05
-1.87396e-05
-1.56383e-05
-2.01952e-05
-1.56384e-05
-8.56027e-05
6.0342e-06
-8.62697e-05
2.42837e-06
-8.58452e-05
-1.01089e-06
-8.42505e-05
-4.45612e-06
-8.12348e-05
-8.09807e-06
-7.67546e-05
-1.20062e-05
-7.05635e-05
-1.62399e-05
-6.2475e-05
-2.09162e-05
-5.21052e-05
-2.61459e-05
-3.89703e-05
-3.18746e-05
-2.26458e-05
-3.65201e-05
-3.82843e-05
-6.60579e-05
7.22793e-06
-6.66285e-05
2.99882e-06
-6.63834e-05
-1.25607e-06
-6.5158e-05
-5.68184e-06
-6.28751e-05
-1.03811e-05
-5.94439e-05
-1.54378e-05
-5.47198e-05
-2.09642e-05
-4.85609e-05
-2.70754e-05
-4.08054e-05
-3.39017e-05
-3.10549e-05
-4.16253e-05
-1.8096e-05
-4.94792e-05
-5.63802e-05
-4.88778e-05
8.14138e-06
-4.92876e-05
3.40858e-06
-4.90887e-05
-1.45488e-06
-4.8196e-05
-6.57477e-06
-4.65444e-05
-1.20327e-05
-4.40928e-05
-1.78896e-05
-4.07468e-05
-2.43104e-05
-3.64145e-05
-3.1408e-05
-3.09461e-05
-3.93702e-05
-2.41661e-05
-4.84054e-05
-1.47729e-05
-5.88721e-05
-7.11536e-05
-3.26957e-05
8.96851e-06
-3.31812e-05
3.89407e-06
-3.32454e-05
-1.39094e-06
-3.28211e-05
-6.99911e-06
-3.18819e-05
-1.29723e-05
-3.03929e-05
-1.93788e-05
-2.82969e-05
-2.6407e-05
-2.55212e-05
-3.41839e-05
-2.19469e-05
-4.2945e-05
-1.71989e-05
-5.31532e-05
-1.05121e-05
-6.55608e-05
-8.16659e-05
-1.73491e-05
9.78626e-06
-1.7942e-05
4.48626e-06
-1.82457e-05
-1.08759e-06
-1.82571e-05
-6.98891e-06
-1.79714e-05
-1.32585e-05
-1.73384e-05
-2.00132e-05
-1.63471e-05
-2.73989e-05
-1.49687e-05
-3.55633e-05
-1.31464e-05
-4.4768e-05
-1.08072e-05
-5.54955e-05
-7.17144e-06
-6.91967e-05
-8.88395e-05
-2.60789e-06
1.06267e-05
-3.31274e-06
5.1901e-06
-3.85254e-06
-5.49127e-07
-4.2357e-06
-6.60697e-06
-4.46617e-06
-1.30297e-05
-4.55244e-06
-1.99283e-05
-4.51461e-06
-2.74382e-05
-4.3828e-06
-3.56965e-05
-4.1958e-06
-4.49572e-05
-3.9476e-06
-5.57438e-05
-3.25391e-06
-6.98954e-05
-9.20937e-05
1.15126e-05
1.14944e-05
1.07216e-05
5.98032e-06
1.0024e-05
1.47251e-07
9.39672e-06
-5.98084e-06
8.80304e-06
-1.24373e-05
8.19533e-06
-1.93218e-05
7.50585e-06
-2.67499e-05
6.61784e-06
-3.48095e-05
5.37585e-06
-4.37156e-05
3.59985e-06
-5.3971e-05
1.11458e-06
-6.74097e-05
-9.09802e-05
2.49532e-05
1.23648e-05
2.41348e-05
6.79792e-06
2.33833e-05
8.97722e-07
2.2665e-05
-5.26358e-06
2.19226e-05
-1.1696e-05
2.10776e-05
-1.84776e-05
2.0008e-05
-2.5681e-05
1.84789e-05
-3.32808e-05
1.61555e-05
-4.13929e-05
1.25692e-05
-5.03835e-05
7.27018e-06
-6.21122e-05
-8.37098e-05
3.76223e-05
1.31988e-05
3.68457e-05
7.57359e-06
3.6154e-05
1.58869e-06
3.5519e-05
-4.6295e-06
3.48855e-05
-1.1063e-05
3.41621e-05
-1.77547e-05
3.31775e-05
-2.46966e-05
3.15323e-05
-3.16356e-05
2.86527e-05
-3.85126e-05
2.36987e-05
-4.54298e-05
1.52833e-05
-5.36961e-05
-6.84252e-05
4.94633e-05
1.39772e-05
4.87851e-05
8.25067e-06
4.82651e-05
2.10762e-06
4.79022e-05
-4.26758e-06
4.76718e-05
-1.08333e-05
4.74957e-05
-1.7579e-05
4.71708e-05
-2.43719e-05
4.60903e-05
-3.05549e-05
4.34693e-05
-3.58914e-05
3.80493e-05
-4.0009e-05
2.64072e-05
-4.2052e-05
-4.20177e-05
6.04835e-05
1.47757e-05
5.99422e-05
8.79118e-06
5.9702e-05
2.34693e-06
5.98352e-05
-4.40127e-06
6.03564e-05
-1.13548e-05
6.11999e-05
-1.84227e-05
6.21228e-05
-2.52948e-05
6.22928e-05
-3.07247e-05
6.09973e-05
-3.45954e-05
5.66114e-05
-3.56221e-05
4.4078e-05
-2.95187e-05
2.06214e-06
7.28197e-06
-7.28333e-06
1.24823e-05
-5.20015e-06
1.51958e-05
-2.71532e-06
1.35231e-05
1.6745e-06
5.84073e-06
7.68045e-06
-1.05469e-05
1.63895e-05
-3.51039e-05
2.45557e-05
-5.60393e-05
2.09364e-05
-7.29166e-05
1.68764e-05
-8.61618e-05
1.32454e-05
-9.62909e-05
1.01284e-05
7.04346e-06
-0.000103335
3.59328e-06
-1.08779e-05
3.06853e-06
-4.67586e-06
-3.48947e-06
3.84174e-06
-1.79988e-05
1.61841e-05
-3.73903e-05
2.70717e-05
-5.29168e-05
3.19164e-05
-6.00991e-05
3.17379e-05
-6.63847e-05
2.72224e-05
-7.23238e-05
2.28153e-05
-7.74915e-05
1.84131e-05
-8.13308e-05
1.39673e-05
9.84519e-06
-8.41329e-05
-1.5287e-06
-9.35004e-06
-7.60132e-06
1.39623e-06
-1.95043e-05
1.57441e-05
-3.27924e-05
2.94724e-05
-4.24881e-05
3.67672e-05
-4.83515e-05
3.77801e-05
-5.2009e-05
3.53953e-05
-5.56068e-05
3.08205e-05
-5.86604e-05
2.58686e-05
-6.11746e-05
2.09272e-05
-6.32971e-05
1.60895e-05
1.15507e-05
-6.50029e-05
-5.81025e-06
-3.54072e-06
-1.41505e-05
9.7361e-06
-2.29387e-05
2.45319e-05
-3.0185e-05
3.67188e-05
-3.50423e-05
4.16244e-05
-3.82808e-05
4.10186e-05
-4.03101e-05
3.74243e-05
-4.20014e-05
3.25117e-05
-4.36417e-05
2.75085e-05
-4.52539e-05
2.25393e-05
-4.67897e-05
1.7625e-05
1.28429e-05
-4.80821e-05
-6.61712e-06
3.07461e-06
-1.28949e-05
1.60134e-05
-1.82479e-05
2.98844e-05
-2.22359e-05
4.07067e-05
-2.45744e-05
4.39624e-05
-2.57469e-05
4.21908e-05
-2.65069e-05
3.81838e-05
-2.74402e-05
3.34444e-05
-2.85252e-05
2.8593e-05
-2.97009e-05
2.37146e-05
-3.08915e-05
1.88152e-05
1.39136e-05
-3.19624e-05
-5.25942e-06
8.3322e-06
-9.38535e-06
2.01383e-05
-1.19666e-05
3.24649e-05
-1.30358e-05
4.17752e-05
-1.30907e-05
4.40165e-05
-1.28091e-05
4.19081e-05
-1.27621e-05
3.81356e-05
-1.31029e-05
3.37838e-05
-1.37645e-05
2.92537e-05
-1.46471e-05
2.45959e-05
-1.56358e-05
1.98034e-05
1.48743e-05
-1.65972e-05
-3.45074e-06
1.17796e-05
-5.48e-06
2.21661e-05
-5.46274e-06
3.24463e-05
-3.87625e-06
4.01877e-05
-1.82385e-06
4.19623e-05
-2.27279e-07
4.031e-05
6.71844e-07
3.72343e-05
9.02538e-07
3.35516e-05
6.1207e-07
2.95422e-05
-3.88011e-08
2.52455e-05
-8.94139e-07
2.06574e-05
1.57814e-05
-1.80215e-06
-2.6545e-06
1.44325e-05
-2.758e-06
2.22683e-05
-1.22543e-07
2.981e-05
4.3317e-06
3.5732e-05
8.54414e-06
3.77487e-05
1.16293e-05
3.72229e-05
1.35072e-05
3.53548e-05
1.43643e-05
3.26925e-05
1.44526e-05
2.94524e-05
1.40124e-05
2.56842e-05
1.32584e-05
2.14104e-05
1.66617e-05
1.23773e-05
-2.90722e-06
1.73404e-05
-1.76305e-06
2.11242e-05
3.65811e-06
2.43883e-05
1.08796e-05
2.85099e-05
1.74287e-05
3.11985e-05
2.22816e-05
3.23689e-05
2.53772e-05
3.22577e-05
2.70135e-05
3.10546e-05
2.75557e-05
2.89088e-05
2.73527e-05
2.58861e-05
2.6703e-05
2.20592e-05
1.75121e-05
2.5852e-05
-5.80045e-06
2.31408e-05
-1.02915e-06
1.63531e-05
8.02037e-06
1.53385e-05
1.7452e-05
1.90781e-05
2.57361e-05
2.29137e-05
3.20546e-05
2.60497e-05
3.62974e-05
2.80136e-05
3.87317e-05
2.86194e-05
3.97715e-05
2.78679e-05
3.98437e-05
2.58131e-05
3.93182e-05
2.25841e-05
1.83168e-05
3.8513e-05
-1.39114e-07
2.32816e-05
1.0062e-05
6.15242e-06
2.06461e-05
4.75465e-06
2.9867e-05
9.85716e-06
3.75258e-05
1.52547e-05
4.34676e-05
2.01075e-05
4.76571e-05
2.38233e-05
5.02233e-05
2.60524e-05
5.14165e-05
2.66738e-05
5.15935e-05
2.56354e-05
5.1113e-05
2.3064e-05
1.91087e-05
5.03205e-05
3.3405e-05
-1.01234e-05
4.40756e-05
-4.51832e-06
4.94267e-05
-5.96463e-07
5.38254e-05
5.45825e-06
5.7324e-05
1.1756e-05
6.00242e-05
1.7407e-05
6.19683e-05
2.18791e-05
6.31173e-05
2.49028e-05
6.34599e-05
2.63309e-05
6.31386e-05
2.59564e-05
6.23488e-05
2.38536e-05
6.13737e-05
2.00833e-05
-0.000107726
4.39077e-06
-0.000109474
1.74736e-06
-0.000108873
-6.00933e-07
-0.000105996
-2.87807e-06
-0.000100895
-5.10117e-06
-9.33503e-05
-7.54588e-06
-8.32811e-05
-1.00698e-05
-7.04329e-05
-1.2849e-05
-5.46361e-05
-1.57974e-05
-3.58762e-05
-1.87606e-05
-1.56615e-05
-2.02164e-05
-1.56621e-05
-8.57631e-05
6.02064e-06
-8.64257e-05
2.40941e-06
-8.5993e-05
-1.03416e-06
-8.43871e-05
-4.48468e-06
-8.13584e-05
-8.13044e-06
-7.68633e-05
-1.20418e-05
-7.06559e-05
-1.62781e-05
-6.255e-05
-2.09557e-05
-5.21624e-05
-2.61858e-05
-3.90088e-05
-3.1915e-05
-2.26637e-05
-3.65627e-05
-3.83261e-05
-6.61967e-05
7.21416e-06
-6.67643e-05
2.97645e-06
-6.65121e-05
-1.28662e-06
-6.52775e-05
-5.71992e-06
-6.29834e-05
-1.04251e-05
-5.95391e-05
-1.54869e-05
-5.48005e-05
-2.10174e-05
-4.86255e-05
-2.71315e-05
-4.08527e-05
-3.39594e-05
-3.1086e-05
-4.16822e-05
-1.81113e-05
-4.9538e-05
-5.64375e-05
-4.89959e-05
8.12777e-06
-4.94028e-05
3.38314e-06
-4.91981e-05
-1.49151e-06
-4.82968e-05
-6.62151e-06
-4.6635e-05
-1.20873e-05
-4.41715e-05
-1.79509e-05
-4.08126e-05
-2.43769e-05
-3.64666e-05
-3.14781e-05
-3.09846e-05
-3.94418e-05
-2.41911e-05
-4.84758e-05
-1.4784e-05
-5.89452e-05
-7.12218e-05
-3.279e-05
8.95517e-06
-3.32733e-05
3.86636e-06
-3.33322e-05
-1.4327e-06
-3.29007e-05
-7.05334e-06
-3.19521e-05
-1.30361e-05
-3.04525e-05
-1.9451e-05
-2.83451e-05
-2.64849e-05
-2.5558e-05
-3.42654e-05
-2.19726e-05
-4.30274e-05
-1.72142e-05
-5.32348e-05
-1.05206e-05
-6.56399e-05
-8.17428e-05
-1.74162e-05
9.77388e-06
-1.80074e-05
4.45708e-06
-1.8307e-05
-1.13353e-06
-1.83122e-05
-7.04873e-06
-1.8019e-05
-1.33301e-05
-1.73769e-05
-2.00938e-05
-1.63764e-05
-2.74861e-05
-1.49886e-05
-3.5654e-05
-1.31581e-05
-4.48598e-05
-1.08093e-05
-5.55848e-05
-7.17808e-06
-6.92726e-05
-8.89224e-05
-2.6445e-06
1.06154e-05
-3.34835e-06
5.1602e-06
-3.88555e-06
-5.97182e-07
-4.26451e-06
-6.67081e-06
-4.48911e-06
-1.31066e-05
-4.56879e-06
-2.00154e-05
-4.52416e-06
-2.75322e-05
-4.38652e-06
-3.57935e-05
-4.19433e-06
-4.50525e-05
-3.94625e-06
-5.58354e-05
-3.2442e-06
-6.99774e-05
-9.21671e-05
1.15076e-05
1.14845e-05
1.07163e-05
5.95076e-06
1.002e-05
9.84664e-08
9.39513e-06
-6.04702e-06
8.80527e-06
-1.25178e-05
8.20171e-06
-1.94131e-05
7.51653e-06
-2.68481e-05
6.63185e-06
-3.49095e-05
5.39008e-06
-4.38131e-05
3.61384e-06
-5.40598e-05
1.12403e-06
-6.74886e-05
-9.10445e-05
2.49794e-05
1.23566e-05
2.41596e-05
6.7699e-06
2.34077e-05
8.49578e-07
2.26901e-05
-5.33044e-06
2.19494e-05
-1.17781e-05
2.11064e-05
-1.85711e-05
2.00386e-05
-2.57812e-05
1.85095e-05
-3.33815e-05
1.61847e-05
-4.14878e-05
1.25927e-05
-5.04691e-05
7.28603e-06
-6.21838e-05
-8.37586e-05
3.76771e-05
1.3192e-05
3.68983e-05
7.54817e-06
3.62047e-05
1.54234e-06
3.55689e-05
-4.69549e-06
3.4935e-05
-1.11451e-05
3.42115e-05
-1.78483e-05
3.32265e-05
-2.47968e-05
3.15789e-05
-3.17338e-05
2.86937e-05
-3.86035e-05
2.37325e-05
-4.55082e-05
1.53059e-05
-5.37572e-05
-6.84532e-05
4.95412e-05
1.39705e-05
4.88603e-05
8.22817e-06
4.8338e-05
2.0634e-06
4.79734e-05
-4.33207e-06
4.77412e-05
-1.0914e-05
4.75628e-05
-1.76707e-05
4.72351e-05
-2.44696e-05
4.61489e-05
-3.06481e-05
4.35205e-05
-3.5975e-05
3.80911e-05
-4.00788e-05
2.64334e-05
-4.21002e-05
-4.20195e-05
6.05763e-05
1.47673e-05
6.00336e-05
8.76996e-06
5.97919e-05
2.30433e-06
5.9923e-05
-4.46427e-06
6.04414e-05
-1.1433e-05
6.12805e-05
-1.85103e-05
6.21979e-05
-2.53873e-05
6.23588e-05
-3.08089e-05
6.10548e-05
-3.46711e-05
5.66587e-05
-3.56828e-05
4.41098e-05
-2.95511e-05
2.08998e-06
7.28223e-06
-7.28436e-06
1.24828e-05
-5.20207e-06
1.52016e-05
-2.7225e-06
1.35419e-05
1.65816e-06
5.89154e-06
7.64705e-06
-1.04246e-05
1.63159e-05
-3.49533e-05
2.45271e-05
-5.58995e-05
2.09465e-05
-7.27696e-05
1.68693e-05
-8.60141e-05
1.32446e-05
-9.61379e-05
1.01235e-05
7.04341e-06
-0.000103181
3.5958e-06
-1.08828e-05
3.08625e-06
-4.69413e-06
-3.44725e-06
3.80854e-06
-1.79132e-05
1.61233e-05
-3.72874e-05
2.70204e-05
-5.28482e-05
3.18766e-05
-6.00383e-05
3.17168e-05
-6.63051e-05
2.72134e-05
-7.22338e-05
2.27978e-05
-7.73921e-05
1.84029e-05
-8.12263e-05
1.39577e-05
9.83993e-06
-8.40229e-05
-1.5212e-06
-9.36217e-06
-7.56795e-06
1.35178e-06
-1.94442e-05
1.56839e-05
-3.27308e-05
2.94097e-05
-4.24378e-05
3.67271e-05
-4.83113e-05
3.77502e-05
-5.19616e-05
3.5367e-05
-5.55443e-05
3.07963e-05
-5.85919e-05
2.58454e-05
-6.10979e-05
2.0909e-05
-6.32141e-05
1.60738e-05
1.15398e-05
-6.49139e-05
-5.79739e-06
-3.56587e-06
-1.41271e-05
9.6807e-06
-2.29118e-05
2.44683e-05
-3.01668e-05
3.66648e-05
-3.50235e-05
4.15838e-05
-3.82571e-05
4.09843e-05
-4.02823e-05
3.73924e-05
-4.19658e-05
3.24802e-05
-4.35979e-05
2.74775e-05
-4.52006e-05
2.2512e-05
-4.67289e-05
1.76022e-05
1.28262e-05
-4.80151e-05
-6.60749e-06
3.03855e-06
-1.28874e-05
1.5959e-05
-1.82452e-05
2.98259e-05
-2.22376e-05
4.06567e-05
-2.45747e-05
4.39216e-05
-2.57443e-05
4.21538e-05
-2.64974e-05
3.81464e-05
-2.74234e-05
3.3406e-05
-2.85008e-05
2.85558e-05
-2.96695e-05
2.36805e-05
-3.08532e-05
1.87865e-05
1.38913e-05
-3.19185e-05
-5.25698e-06
8.28716e-06
-9.38353e-06
2.00839e-05
-1.19758e-05
3.24152e-05
-1.30513e-05
4.17324e-05
-1.31089e-05
4.39779e-05
-1.28232e-05
4.18686e-05
-1.27711e-05
3.80931e-05
-1.31051e-05
3.37405e-05
-1.37613e-05
2.9211e-05
-1.46374e-05
2.45569e-05
-1.56209e-05
1.97692e-05
1.48473e-05
-1.65769e-05
-3.45679e-06
1.1741e-05
-5.49544e-06
2.21186e-05
-5.48251e-06
3.24018e-05
-3.90403e-06
4.0152e-05
-1.85355e-06
4.19264e-05
-2.55655e-07
4.02691e-05
6.47576e-07
3.71892e-05
8.82291e-07
3.35046e-05
5.96547e-07
2.94961e-05
-5.01168e-08
2.52025e-05
-9.00974e-07
2.06195e-05
1.57505e-05
-1.80518e-06
-2.66818e-06
1.44054e-05
-2.78247e-06
2.22325e-05
-1.55087e-07
2.9772e-05
4.29528e-06
3.57001e-05
8.50625e-06
3.77141e-05
1.15916e-05
3.71825e-05
1.34706e-05
3.53091e-05
1.433e-05
3.26443e-05
1.44208e-05
2.94046e-05
1.39834e-05
2.56391e-05
1.32321e-05
2.13701e-05
1.66284e-05
1.23536e-05
-2.9252e-06
1.73298e-05
-1.79586e-06
2.11011e-05
3.61684e-06
2.43591e-05
1.08363e-05
2.84798e-05
1.73854e-05
3.11642e-05
2.22377e-05
3.23293e-05
2.53326e-05
3.22135e-05
2.6969e-05
3.10072e-05
2.7512e-05
2.88611e-05
2.73099e-05
2.58407e-05
2.66613e-05
2.20183e-05
1.7478e-05
2.58113e-05
-5.82146e-06
2.3151e-05
-1.06178e-06
1.63423e-05
7.97912e-06
1.53175e-05
1.7408e-05
1.90507e-05
2.56911e-05
2.28805e-05
3.20083e-05
2.60116e-05
3.62493e-05
2.79717e-05
3.86819e-05
2.85741e-05
3.97207e-05
2.78219e-05
3.9792e-05
2.5769e-05
3.92659e-05
2.2544e-05
1.82833e-05
3.84601e-05
-1.49623e-07
2.33009e-05
1.00424e-05
6.14974e-06
2.0622e-05
4.73839e-06
2.98387e-05
9.83396e-06
3.74925e-05
1.52264e-05
4.34293e-05
2.00743e-05
4.76139e-05
2.37866e-05
5.01755e-05
2.60118e-05
5.13649e-05
2.66319e-05
5.15388e-05
2.55946e-05
5.10558e-05
2.30265e-05
1.90769e-05
5.02615e-05
3.34194e-05
-1.01187e-05
4.40899e-05
-4.5204e-06
4.94364e-05
-6.08085e-07
5.38284e-05
5.44195e-06
5.73186e-05
1.17362e-05
6.00092e-05
1.73834e-05
6.19434e-05
2.1852e-05
6.30828e-05
2.48719e-05
6.34168e-05
2.62975e-05
6.30885e-05
2.59226e-05
6.22931e-05
2.38214e-05
6.13137e-05
2.00557e-05
-0.000107573
4.3914e-06
-0.000109325
1.75151e-06
-0.00010873
-5.94917e-07
-0.000105861
-2.86907e-06
-0.000100772
-5.08966e-06
-9.32401e-05
-7.53197e-06
-8.31863e-05
-1.00539e-05
-7.0355e-05
-1.28316e-05
-5.45759e-05
-1.57792e-05
-3.58344e-05
-1.87417e-05
-1.5638e-05
-2.01967e-05
-1.56381e-05
-8.56507e-05
6.01912e-06
-8.63121e-05
2.41267e-06
-8.58809e-05
-1.02616e-06
-8.4279e-05
-4.47127e-06
-8.12565e-05
-8.11229e-06
-7.67699e-05
-1.20189e-05
-7.05733e-05
-1.62508e-05
-6.24801e-05
-2.09251e-05
-5.21067e-05
-2.61528e-05
-3.89698e-05
-3.18786e-05
-2.2645e-05
-3.65217e-05
-3.82832e-05
-6.61038e-05
7.209e-06
-6.66692e-05
2.978e-06
-6.64175e-05
-1.27783e-06
-6.51855e-05
-5.70352e-06
-6.28962e-05
-1.04017e-05
-5.9459e-05
-1.54563e-05
-5.47298e-05
-2.09801e-05
-4.85666e-05
-2.70885e-05
-4.08078e-05
-3.39118e-05
-3.10547e-05
-4.16319e-05
-1.80952e-05
-4.94814e-05
-5.63783e-05
-4.89243e-05
8.11831e-06
-4.93285e-05
3.38229e-06
-4.91233e-05
-1.48298e-06
-4.82241e-05
-6.60273e-06
-4.65662e-05
-1.20596e-05
-4.41088e-05
-1.79139e-05
-4.07578e-05
-2.43313e-05
-3.64213e-05
-3.14252e-05
-3.09496e-05
-3.93836e-05
-2.4167e-05
-4.84145e-05
-1.47721e-05
-5.88759e-05
-7.11509e-05
-3.27413e-05
8.94143e-06
-3.32215e-05
3.86238e-06
-3.32795e-05
-1.42503e-06
-3.2849e-05
-7.03328e-06
-3.19037e-05
-1.30054e-05
-3.0409e-05
-1.94087e-05
-2.8308e-05
-2.64327e-05
-2.55284e-05
-3.4205e-05
-2.19509e-05
-4.29614e-05
-1.72004e-05
-5.31647e-05
-1.05132e-05
-6.55649e-05
-8.16641e-05
-1.73917e-05
9.75574e-06
-1.79798e-05
4.44998e-06
-1.82781e-05
-1.12716e-06
-1.82832e-05
-7.02917e-06
-1.79918e-05
-1.32972e-05
-1.73534e-05
-2.00482e-05
-1.63577e-05
-2.7429e-05
-1.49757e-05
-3.55878e-05
-1.31506e-05
-4.4787e-05
-1.08091e-05
-5.55088e-05
-7.17193e-06
-6.92019e-05
-8.88378e-05
-2.64412e-06
1.05938e-05
-3.34528e-06
5.15019e-06
-3.88038e-06
-5.93284e-07
-4.25838e-06
-6.65232e-06
-4.4838e-06
-1.30733e-05
-4.5656e-06
-1.99677e-05
-4.52411e-06
-2.74718e-05
-4.38958e-06
-3.57236e-05
-4.20057e-06
-4.49778e-05
-3.95116e-06
-5.57581e-05
-3.25508e-06
-6.99022e-05
-9.20931e-05
1.14861e-05
1.14606e-05
1.06973e-05
5.93823e-06
1.0003e-05
9.98762e-08
9.37958e-06
-6.02997e-06
8.78972e-06
-1.24847e-05
8.18526e-06
-1.93643e-05
7.49822e-06
-2.67858e-05
6.6118e-06
-3.48379e-05
5.37086e-06
-4.3737e-05
3.59622e-06
-5.3986e-05
1.11245e-06
-6.74179e-05
-9.0981e-05
2.49396e-05
1.23316e-05
2.41215e-05
6.75551e-06
2.33715e-05
8.48915e-07
2.26554e-05
-5.31479e-06
2.19152e-05
-1.17454e-05
2.10718e-05
-1.85216e-05
2.0003e-05
-2.57175e-05
1.84741e-05
-3.33091e-05
1.61506e-05
-4.14139e-05
1.25644e-05
-5.03988e-05
7.26762e-06
-6.21212e-05
-8.37133e-05
3.76237e-05
1.31676e-05
3.68455e-05
7.53281e-06
3.61534e-05
1.54039e-06
3.55186e-05
-4.68085e-06
3.48852e-05
-1.11124e-05
3.41615e-05
-1.77982e-05
3.3176e-05
-2.47321e-05
3.15292e-05
-3.16621e-05
2.86479e-05
-3.85318e-05
2.36935e-05
-4.54439e-05
1.52796e-05
-5.37071e-05
-6.84316e-05
4.94799e-05
1.39482e-05
4.87985e-05
8.21317e-06
4.82764e-05
2.06145e-06
4.79117e-05
-4.31711e-06
4.76793e-05
-1.08805e-05
4.75007e-05
-1.76199e-05
4.71732e-05
-2.44046e-05
4.60894e-05
-3.05781e-05
4.34656e-05
-3.59074e-05
3.80435e-05
-4.00215e-05
2.6403e-05
-4.20635e-05
-4.2028e-05
6.05122e-05
1.47489e-05
5.99678e-05
8.75693e-06
5.97245e-05
2.3038e-06
5.98542e-05
-4.44718e-06
6.03712e-05
-1.13978e-05
6.12102e-05
-1.84589e-05
6.21292e-05
-2.53235e-05
6.22947e-05
-3.07434e-05
6.09962e-05
-3.46084e-05
5.66071e-05
-3.56313e-05
4.40711e-05
-2.95277e-05
2.04456e-06
8.77034e-05
-7.93749e-06
-8.98766e-05
8.78099e-05
-4.61608e-06
8.59089e-05
1.30981e-06
8.39725e-05
7.39557e-06
8.22562e-05
1.34671e-05
8.07662e-05
1.88847e-05
7.94058e-05
2.32211e-05
7.80616e-05
2.62234e-05
7.66019e-05
2.77632e-05
7.50347e-05
2.74933e-05
7.33866e-05
2.54686e-05
2.15408e-05
7.18934e-05
0.000107397
-9.7378e-06
-0.000105596
0.000107067
-4.28621e-06
0.00010588
2.49727e-06
0.000103952
9.32353e-06
0.000101526
1.58926e-05
9.87423e-05
2.16682e-05
9.57708e-05
2.61923e-05
9.27423e-05
2.92517e-05
8.96899e-05
3.08152e-05
8.67606e-05
3.04221e-05
8.39936e-05
2.82351e-05
2.37853e-05
8.17487e-05
0.000118869
-1.04805e-05
-0.000118127
0.000118597
-4.0156e-06
0.000117725
3.36956e-06
0.000116186
1.08614e-05
0.000114026
1.80516e-05
0.000111284
2.44102e-05
0.00010806
2.94151e-05
0.000104471
3.284e-05
0.000100638
3.46477e-05
9.68344e-05
3.42253e-05
9.3171e-05
3.18977e-05
2.63892e-05
9.05659e-05
0.000126767
-0.000127071
-1.01754e-05
0.000125955
-3.20385e-06
0.000124672
4.65211e-06
0.000122887
1.26469e-05
0.000120593
2.03452e-05
0.00011783
2.71731e-05
0.00011461
3.26348e-05
0.000110967
3.64829e-05
0.000107046
3.85679e-05
0.00010327
3.80012e-05
0.000100131
3.50363e-05