/*--------------------------------*- C++ -*----------------------------------*\
| =========                 |                                                 |
| \\      /  F ield         | OpenFOAM: The Open Source CFD Toolbox           |
|  \\    /   O peration     | Version:  4.0                                   |
|   \\  /    A nd           | Web:      www.OpenFOAM.org                      |
|    \\/     M anipulation  |                                                 |
\*---------------------------------------------------------------------------*/
FoamFile
{
    version     2.0;
    format      ascii;
    class       volVectorField;
    location    "150";
    object      U;
}
// * * * * * * * * * * * * * * * * * * * * * * * * * * * * * * * * * * * * * //

dimensions      [0 1 -1 0 0 0 0];

internalField   nonuniform List<vector> 
3072
(
(-0.0469354 2.22055 0)
(-0.00687357 1.88931 0)
(0.0852331 1.63813 1.17236e-19)
(0.210317 1.57328 1.92386e-18)
(0.435796 1.78233 -1.9594e-18)
(1.38645 1.77217 7.67205e-19)
(2.92382 2.03521 9.76466e-20)
(3.46659 2.90631 1.20998e-18)
(3.81672 3.28926 -2.50936e-18)
(4.2721 3.68094 1.75214e-18)
(4.68443 3.764 -2.98299e-19)
(5.07275 3.82901 1.93987e-19)
(-0.654692 2.80855 -1.74361e-19)
(-0.34793 2.32029 -1.33405e-19)
(0.184319 2.4522 2.92413e-19)
(1.13982 2.59433 0)
(2.33468 3.09697 2.99294e-19)
(3.21565 3.46204 -4.43398e-19)
(3.58343 3.58581 0)
(3.63933 3.77546 0)
(3.7213 3.87805 0)
(3.87278 3.99293 7.13459e-19)
(3.99935 4.05324 -6.13155e-19)
(4.15798 4.06428 7.68534e-19)
(-0.509044 3.16413 1.16731e-19)
(0.239386 2.8131 0)
(1.24676 3.07527 0)
(2.33866 3.35236 -1.50493e-18)
(3.17204 3.55778 6.01633e-19)
(3.59003 3.55206 -1.49871e-18)
(3.7774 3.50428 1.45049e-18)
(3.85821 3.50553 0)
(3.92231 3.49167 0)
(3.9907 3.47667 -6.59151e-19)
(4.06097 3.44544 -3.78783e-19)
(4.1499 3.39971 1.67761e-18)
(-0.215673 3.40986 -1.3263e-18)
(0.687093 3.29617 -2.13343e-18)
(1.74023 3.50107 9.27675e-19)
(2.70886 3.58453 -1.02717e-18)
(3.28335 3.52866 2.91527e-18)
(3.56255 3.4635 -2.4287e-18)
(3.67935 3.3728 -1.41992e-18)
(3.69628 3.30225 -4.40301e-18)
(3.70557 3.25364 -1.45013e-20)
(3.72899 3.2176 2.11588e-18)
(3.76683 3.18396 2.20281e-18)
(3.82169 3.14663 -1.71131e-18)
(0.130228 3.55142 0)
(1.01495 3.5478 8.22937e-19)
(1.9868 3.62869 -1.54375e-18)
(2.80045 3.54937 2.49629e-18)
(3.24749 3.43898 2.83535e-19)
(3.4258 3.28911 1.62312e-18)
(3.4671 3.16607 1.66082e-18)
(3.47197 3.07422 1.42599e-18)
(3.48198 3.00272 -2.766e-18)
(3.50178 2.94639 2.42313e-18)
(3.53222 2.90059 -3.10124e-18)
(3.57325 2.8592 4.21609e-18)
(0.387134 3.66947 -2.77015e-18)
(1.21266 3.7154 1.11424e-18)
(2.06349 3.69057 3.8128e-18)
(2.75533 3.50842 0)
(3.10649 3.31068 -4.62254e-18)
(3.21701 3.11654 5.00582e-18)
(3.24469 2.96658 0)
(3.25096 2.85098 -3.64447e-18)
(3.26016 2.76263 3.12436e-18)
(3.27631 2.69554 0)
(3.30004 2.64492 2.12838e-19)
(3.33048 2.60526 2.69998e-18)
(0.561227 3.80462 0)
(1.29765 3.87678 -2.83978e-18)
(2.02859 3.74851 2.19428e-18)
(2.61948 3.48884 0)
(2.88577 3.21192 -3.11911e-18)
(2.98007 2.97217 6.02754e-19)
(3.01132 2.78573 4.88377e-18)
(3.025 2.64438 4.08138e-18)
(3.03841 2.53896 -3.53677e-18)
(3.05534 2.46185 3.31289e-18)
(3.07642 2.40705 -2.81608e-18)
(3.10097 2.36887 -7.65526e-18)
(0.661906 4.00112 0)
(1.29479 4.09096 2.82168e-18)
(1.9068 3.86868 -4.04562e-18)
(2.38069 3.53187 4.45642e-18)
(2.62201 3.17022 0)
(2.72529 2.86827 -6.23153e-18)
(2.77274 2.63542 5.45665e-18)
(2.80071 2.46222 -4.19595e-20)
(2.82323 2.3362 -7.99626e-18)
(2.84464 2.24736 -3.5012e-18)
(2.86611 2.18772 -1.61312e-19)
(2.88759 2.1505 5.9651e-18)
(0.725673 4.19996 0)
(1.26214 4.3808 -3.91404e-18)
(1.71556 4.07402 -6.2008e-18)
(2.09344 3.65153 -4.67024e-18)
(2.32368 3.20784 8.93378e-18)
(2.45459 2.8276 0)
(2.53162 2.53316 0)
(2.58199 2.31628 0)
(2.61944 2.16194 0)
(2.64905 2.05717 3.87305e-18)
(2.67323 1.99051 -3.66484e-18)
(2.69346 1.95281 3.42894e-18)
(0.833358 4.60534 0)
(1.13222 4.71534 2.93618e-18)
(1.4324 4.27178 -6.45227e-19)
(1.74416 3.77091 5.08557e-18)
(1.98554 3.27237 4.8465e-18)
(2.15892 2.83003 -7.64339e-18)
(2.28136 2.47654 0)
(2.36636 2.21189 -2.11158e-19)
(2.42674 2.02377 -1.56677e-17)
(2.46985 1.89756 0)
(2.50041 1.81997 8.70621e-18)
(2.52132 1.77952 -3.89723e-18)
(1.20044 4.61283 0)
(0.924686 4.62461 3.14214e-18)
(1.0217 4.11935 9.72387e-18)
(1.31514 3.61132 -8.4285e-18)
(1.59562 3.16058 -1.14325e-17)
(1.82798 2.74228 1.72417e-17)
(2.00973 2.39047 -1.81047e-19)
(2.14379 2.11101 -6.30028e-18)
(2.23899 1.90398 5.08109e-18)
(2.30353 1.76262 -1.0492e-17)
(2.34577 1.67552 -1.40964e-17)
(2.37103 1.63182 1.37476e-17)
(0.190305 3.64064 -1.28752e-18)
(0.329963 3.54504 -1.08949e-17)
(0.540869 3.21087 1.87619e-18)
(0.868706 2.90444 0)
(1.19453 2.64577 0)
(1.48418 2.38517 1.58532e-19)
(1.72289 2.13959 1.6496e-17)
(1.90953 1.92373 1.0341e-17)
(2.0484 1.74861 0)
(2.14445 1.62132 9.63306e-18)
(2.20648 1.54076 0)
(2.24121 1.50222 4.87953e-19)
(5.37005 3.71314 3.55979e-18)
(5.60979 3.57198 -1.80605e-18)
(5.73947 3.33098 9.6755e-19)
(5.7965 3.07838 -1.72217e-19)
(5.75547 2.76943 7.62474e-20)
(5.61834 2.46727 0)
(5.36525 2.15032 0)
(5.00209 1.86029 5.58608e-19)
(4.51767 1.58457 -6.55157e-19)
(3.8546 1.30487 0)
(3.1404 0.938334 0)
(2.78683 0.186181 -5.09302e-19)
(4.31518 4.01225 -2.0725e-20)
(4.47486 3.91095 0)
(4.62271 3.75437 -9.08501e-19)
(4.74572 3.55509 -3.33347e-19)
(4.80999 3.3366 -8.39187e-20)
(4.8105 3.11134 1.43154e-18)
(4.73588 2.89315 -2.46245e-18)
(4.5841 2.70254 4.32652e-19)
(4.35374 2.56154 0)
(3.91778 2.45854 0)
(3.47158 2.36631 0)
(3.38879 2.1137 5.46073e-19)
(4.24489 3.33291 6.09068e-19)
(4.33588 3.24919 -1.75262e-18)
(4.40938 3.15254 4.29678e-19)
(4.45334 3.04965 1.26666e-18)
(4.45986 2.94659 -1.33084e-18)
(4.42402 2.85447 0)
(4.34073 2.78404 0)
(4.21019 2.75058 -9.97636e-20)
(4.03906 2.77179 7.80836e-19)
(3.76607 2.8514 0)
(3.41725 2.92132 0)
(3.46063 2.91427 -3.1386e-19)
(3.88442 3.10009 2.6143e-19)
(3.946 3.04462 2.12058e-18)
(3.99724 2.98283 1.53987e-18)
(4.02996 2.92117 -1.55619e-18)
(4.03903 2.86698 0)
(4.02218 2.82899 1.00516e-18)
(3.97656 2.8176 0)
(3.90189 2.8438 1.85504e-18)
(3.80641 2.92294 -6.40126e-19)
(3.67429 3.07316 0)
(3.39649 3.28982 -2.81277e-19)
(3.66085 3.59952 2.80139e-19)
(3.61908 2.81888 -1.63348e-18)
(3.66344 2.77953 0)
(3.70108 2.74329 0)
(3.72688 2.71624 0)
(3.73872 2.70284 0)
(3.73834 2.70686 -1.86805e-18)
(3.7228 2.74109 -9.57771e-20)
(3.69309 2.81369 -9.48243e-19)
(3.65334 2.93822 0)
(3.61293 3.13128 -7.77369e-19)
(3.39941 3.42318 2.91708e-19)
(3.79787 3.87779 -7.12211e-20)
(3.36417 2.57346 -1.82019e-19)
(3.39738 2.54873 -4.2623e-18)
(3.42728 2.53291 1.92578e-18)
(3.45172 2.52906 -1.26e-20)
(3.4734 2.54077 1.48379e-19)
(3.49096 2.57366 2.93595e-18)
(3.50485 2.63532 -9.95161e-20)
(3.5176 2.73399 -3.42774e-18)
(3.53346 2.8832 -1.41537e-18)
(3.55793 3.10818 6.41189e-19)
(3.45399 3.44983 -9.54392e-19)
(3.96409 4.04337 -2.072e-19)
(3.12724 2.3436 7.19979e-18)
(3.15365 2.32953 2.31206e-18)
(3.17981 2.32729 0)
(3.20688 2.33863 0)
(3.23664 2.36626 1.45709e-19)
(3.27026 2.41501 -2.22856e-18)
(3.30997 2.49102 3.56472e-18)
(3.36017 2.60074 -9.25796e-20)
(3.42612 2.75471 1.23555e-18)
(3.51932 2.97387 0)
(3.55253 3.31895 -1.79703e-19)
(4.05077 3.97767 -7.39649e-20)
(2.90875 2.13045 -2.81931e-18)
(2.93025 2.12425 -2.52301e-18)
(2.95362 2.1312 2.7152e-18)
(2.9816 2.1516 -2.51974e-18)
(3.01689 2.18749 1.07696e-20)
(3.06215 2.24301 5.11136e-18)
(3.12125 2.32295 -2.3611e-18)
(3.20098 2.43172 1.38554e-18)
(3.30985 2.57759 0)
(3.46505 2.77944 8.6708e-19)
(3.59235 3.10125 3.51154e-19)
(4.14785 3.79522 -5.84715e-19)
(2.71054 1.9364 3.19179e-18)
(2.72731 1.93552 -3.06727e-18)
(2.74674 1.94805 -2.80998e-18)
(2.77261 1.97278 -5.88063e-18)
(2.80838 2.01095 5.67539e-18)
(2.85757 2.06585 -5.48288e-18)
(2.92531 2.14084 0)
(3.0218 2.23748 -1.35469e-18)
(3.16028 2.36064 0)
(3.36477 2.52394 0)
(3.59949 2.78746 0)
(4.13517 3.42296 2.71494e-19)
(2.53467 1.76515 3.69466e-18)
(2.54591 1.76748 -7.25927e-18)
(2.55927 1.78303 7.00959e-18)
(2.57882 1.80887 6.71607e-18)
(2.60804 1.84528 3.24401e-18)
(2.65062 1.89468 0)
(2.71205 1.95831 0)
(2.80714 2.0333 3.33023e-18)
(2.95661 2.12066 0)
(3.19674 2.22536 -1.00294e-18)
(3.51473 2.38983 5.92979e-19)
(4.06494 2.87823 -8.65107e-19)
(2.38202 1.61902 -8.7453e-18)
(2.38684 1.62352 7.81602e-18)
(2.39162 1.64055 -7.5399e-18)
(2.3998 1.66577 -1.8992e-17)
(2.41357 1.69852 -2.26129e-19)
(2.43607 1.74032 1.17592e-19)
(2.47211 1.78957 -3.73496e-18)
(2.5426 1.83604 -3.44835e-18)
(2.67771 1.87615 0)
(2.92393 1.90198 3.12734e-18)
(3.30237 1.90019 8.18889e-19)
(3.83292 1.93764 -1.20417e-18)
(2.25191 1.49705 -4.50666e-19)
(2.25066 1.50414 0)
(2.24345 1.52289 0)
(2.23335 1.54728 4.0153e-18)
(2.22 1.57625 1.22392e-17)
(2.20536 1.61085 -3.9692e-18)
(2.19446 1.64726 -2.17563e-19)
(2.21685 1.66543 -2.03423e-18)
(2.30834 1.65707 -1.91544e-18)
(2.50316 1.59429 -1.96846e-18)
(2.90232 1.37479 0)
(3.26072 0.483939 1.52883e-18)
(2.21823 0.038294 6.40998e-22)
(1.88652 0.000755525 0)
(1.63656 -0.0891812 -1.1661e-19)
(1.57126 -0.21389 0)
(1.7782 -0.434217 -9.25878e-19)
(1.77368 -1.37472 7.67623e-19)
(2.02157 -2.91245 0)
(2.89709 -3.4635 1.06172e-18)
(3.28034 -3.81043 -2.18167e-18)
(3.67344 -4.26771 1.85533e-18)
(3.75707 -4.67892 -2.53415e-19)
(3.82313 -5.06846 -1.95677e-19)
(2.80836 0.650994 -9.47896e-20)
(2.31915 0.346808 6.29414e-20)
(2.45009 -0.178994 2.73953e-20)
(2.58957 -1.12794 0)
(3.08784 -2.32212 -3.01775e-19)
(3.457 -3.20541 1.90894e-19)
(3.58275 -3.57952 0)
(3.76929 -3.63975 8.26253e-19)
(3.872 -3.71931 -2.07892e-18)
(3.98697 -3.8715 1.1596e-18)
(4.04746 -3.99746 7.6046e-20)
(4.05894 -4.15625 -2.00771e-18)
(3.16348 0.509894 -1.17176e-19)
(2.81034 -0.2339 0)
(3.07025 -1.23804 -1.02104e-18)
(3.34737 -2.32976 0)
(3.55274 -3.16662 0)
(3.54851 -3.58801 -6.54601e-19)
(3.50015 -3.77647 3.14853e-18)
(3.50179 -3.85679 -2.35209e-18)
(3.48726 -3.92045 7.37275e-19)
(3.47225 -3.98935 0)
(3.44089 -4.05938 1.46955e-18)
(3.39519 -4.14831 -8.08294e-19)
(3.40991 0.217665 8.43483e-19)
(3.29441 -0.681893 1.18074e-18)
(3.49876 -1.73341 6.67208e-19)
(3.58273 -2.70222 1.53747e-18)
(3.52704 -3.27934 -1.37614e-18)
(3.46118 -3.56019 -8.83533e-19)
(3.37011 -3.67778 0)
(3.29925 -3.69502 0)
(3.25015 -3.70434 1.43324e-18)
(3.21367 -3.72784 0)
(3.17977 -3.76561 3.4968e-19)
(3.1423 -3.82047 6.5818e-19)
(3.55258 -0.126603 1.78689e-18)
(3.54771 -1.00972 -6.60055e-19)
(3.62889 -1.98034 -1.54657e-18)
(3.54996 -2.79453 0)
(3.43841 -3.24362 0)
(3.28841 -3.42364 2.11772e-18)
(3.16444 -3.46552 0)
(3.07204 -3.47055 -3.29272e-18)
(3.00002 -3.48065 -1.21423e-18)
(2.94322 -3.50059 2.42817e-18)
(2.89704 -3.53114 -3.10788e-18)
(2.85539 -3.57229 2.0085e-18)
(3.6709 -0.38348 -1.51356e-18)
(3.71621 -1.20765 -9.88413e-19)
(3.69137 -2.05781 1.71069e-18)
(3.51003 -2.74961 1.74746e-19)
(3.3118 -3.10288 2.34405e-18)
(3.11693 -3.21465 -4.80701e-18)
(2.96608 -3.24294 4.43429e-18)
(2.8498 -3.24952 3.26418e-19)
(2.76085 -3.25894 0)
(2.69321 -3.27534 0)
(2.64211 -3.29931 5.15777e-18)
(2.60207 -3.32998 -2.51313e-20)
(3.80643 -0.558047 -6.65538e-20)
(3.87865 -1.29327 -1.57457e-18)
(3.75089 -2.02334 0)
(3.49143 -2.61439 -2.65218e-18)
(3.21429 -2.88215 3.32969e-18)
(2.97375 -2.97757 8.85561e-18)
(2.78651 -3.00949 5.25466e-18)
(2.6444 -3.02363 5.78841e-19)
(2.53829 -3.03742 -7.26349e-18)
(2.46054 -3.05473 3.13627e-18)
(2.40515 -3.07615 3.18406e-18)
(2.36646 -3.10102 1.45161e-19)
(4.00308 -0.66042 1.96184e-19)
(4.09343 -1.29152 2.82472e-18)
(3.87223 -1.90206 0)
(3.53567 -2.3761 -4.46406e-18)
(3.17389 -2.61854 -3.54056e-18)
(2.87122 -2.72282 4.49899e-19)
(2.63757 -2.77102 -1.05989e-17)
(2.46358 -2.79956 2.51012e-19)
(2.3368 -2.82259 -2.53319e-19)
(2.24722 -2.84448 3.72478e-18)
(2.18688 -2.8664 -2.86717e-18)
(2.14902 -2.88828 1.84529e-19)
(4.20117 -0.725725 -3.92457e-18)
(4.38302 -1.26002 1.63681e-18)
(4.07732 -1.71192 -8.99658e-18)
(3.65583 -2.0894 4.65917e-18)
(3.21248 -2.32034 0)
(2.83187 -2.45215 0)
(2.53673 -2.53004 6.3049e-18)
(2.31907 -2.58113 1.05711e-17)
(2.16392 -2.61921 -4.58156e-18)
(2.05832 -2.64941 -3.8706e-18)
(1.99085 -2.67414 -3.51699e-18)
(1.95238 -2.69483 0)
(4.60561 -0.83389 4.02219e-20)
(4.71588 -1.13066 4.43298e-18)
(4.27367 -1.42951 1.09588e-17)
(3.7743 -1.74088 0)
(3.27679 -1.98259 8.64736e-18)
(2.83474 -2.15664 0)
(2.48102 -2.27994 1.99776e-19)
(2.21579 -2.36576 -5.60773e-18)
(2.02694 -2.4269 5.35714e-18)
(1.89993 -2.4707 0)
(1.82147 -2.50188 0)
(1.78015 -2.52334 -8.07673e-18)
(4.61249 -1.2005 -5.70084e-18)
(4.62451 -0.923754 3.14154e-18)
(4.12015 -1.02008 4.87935e-19)
(3.61335 -1.31278 -9.07123e-18)
(3.16381 -1.59322 -3.65416e-18)
(2.74626 -1.82599 -3.47934e-18)
(2.39483 -2.00845 -6.4067e-18)
(2.11527 -2.14333 -1.76021e-17)
(1.90783 -2.23938 -5.08118e-18)
(1.76584 -2.30473 -1.04908e-17)
(1.67795 -2.3477 9.83361e-18)
(1.63337 -2.37361 8.68808e-18)
(3.641 -0.190187 2.44679e-18)
(3.54502 -0.329183 -1.30468e-18)
(3.21114 -0.539584 1.94314e-19)
(2.90545 -0.866861 6.51371e-18)
(2.64782 -1.19254 0)
(2.38809 -1.48252 -5.84061e-18)
(2.14315 -1.72182 5.3964e-18)
(1.9276 -1.90922 4.91157e-18)
(1.75247 -2.04894 -1.54492e-17)
(1.62487 -2.14587 9.63353e-18)
(1.54372 -2.20868 -9.33712e-18)
(1.50446 -2.24417 0)
(3.70796 -5.36553 -1.85771e-18)
(3.56765 -5.60622 4.73534e-18)
(3.32729 -5.73611 -1.90036e-18)
(3.07552 -5.79363 -2.14418e-18)
(2.76713 -5.75301 1.77871e-18)
(2.4656 -5.61636 -2.25539e-19)
(2.14909 -5.36372 -1.01682e-20)
(1.85946 -5.00099 1.004e-19)
(1.584 -4.51693 -6.55493e-19)
(1.3045 -3.85411 0)
(0.938062 -3.14023 0)
(0.186036 -2.78667 -5.09263e-19)
(4.00729 -4.31322 6.7275e-20)
(3.90656 -4.47289 6.98449e-19)
(3.75063 -4.62059 -9.08607e-19)
(3.55178 -4.74391 0)
(3.33375 -4.80842 5.31386e-19)
(3.10895 -4.80922 0)
(2.8912 -4.73489 6.50855e-19)
(2.70102 -4.5834 1.58282e-18)
(2.56042 -4.35329 -1.36543e-18)
(2.45778 -3.91748 0)
(2.36578 -3.47151 0)
(2.1134 -3.38879 3.42016e-20)
(3.32849 -4.24321 2.90705e-19)
(3.24496 -4.33425 -2.87745e-19)
(3.14856 -4.40784 4.31983e-19)
(3.04604 -4.45199 0)
(2.94335 -4.4587 -5.90007e-19)
(2.85166 -4.42306 1.82143e-18)
(2.78165 -4.34 -2.64547e-18)
(2.74863 -4.20967 -3.43138e-18)
(2.7703 -4.03873 2.22504e-18)
(2.85037 -3.76596 0)
(2.92059 -3.41726 3.46553e-19)
(2.91395 -3.46066 1.14895e-19)
(3.09573 -3.88321 6.0742e-19)
(3.04034 -3.94487 -1.47713e-18)
(2.9787 -3.99624 1.54312e-18)
(2.91729 -4.02912 -1.55908e-18)
(2.86341 -4.03834 0)
(2.82582 -4.02165 1.00603e-18)
(2.81483 -3.97618 8.1319e-19)
(2.84146 -3.90166 5.52627e-19)
(2.92107 -3.8063 -1.27404e-18)
(3.07184 -3.67428 0)
(3.28903 -3.39659 -2.07392e-19)
(3.59921 -3.66094 3.10528e-19)
(2.8149 -3.61826 1.86443e-18)
(2.77548 -3.66278 -1.01507e-18)
(2.73927 -3.7006 0)
(2.71237 -3.72655 0)
(2.69916 -3.73853 8.94334e-19)
(2.70352 -3.73828 -8.46503e-19)
(2.73814 -3.72284 -1.73433e-19)
(2.81118 -3.6932 0)
(2.93619 -3.65348 -6.01044e-19)
(3.12975 -3.61301 7.77657e-19)
(3.42242 -3.3995 -6.23031e-19)
(3.87756 -3.79801 -1.09928e-19)
(2.56997 -3.36388 -4.31289e-18)
(2.54503 -3.3973 2.05735e-18)
(2.5291 -3.42739 4.01632e-18)
(2.52528 -3.45199 -1.28003e-20)
(2.53714 -3.47378 -5.02142e-18)
(2.57028 -3.49141 -2.17399e-18)
(2.6323 -3.50534 -1.64995e-19)
(2.7314 -3.51808 0)
(2.8811 -3.53387 0)
(3.10666 -3.55817 -6.41238e-19)
(3.44909 -3.45438 -5.6289e-19)
(4.0432 -3.96412 8.43058e-20)
(2.34077 -3.12757 2.44513e-18)
(2.32635 -3.15422 -4.84486e-18)
(2.32388 -3.18059 -2.11042e-18)
(2.33512 -3.20779 -1.47225e-19)
(2.36279 -3.23761 2.04194e-18)
(2.41174 -3.27123 2.05378e-18)
(2.48805 -3.31089 1.20578e-18)
(2.59817 -3.36097 1.18992e-18)
(2.75265 -3.42676 -1.35112e-18)
(2.97237 -3.51972 0)
(3.31829 -3.55278 7.32826e-19)
(3.97771 -4.05088 -2.2723e-19)
(2.12842 -2.90979 0)
(2.12175 -2.93154 2.5221e-18)
(2.12832 -2.9551 0)
(2.1485 -2.98318 -1.3697e-19)
(2.18433 -3.01847 1.09815e-20)
(2.23995 -3.06364 5.1049e-18)
(2.32015 -3.12257 -5.01296e-18)
(2.4293 -3.20208 0)
(2.57564 -3.31066 -1.52379e-18)
(2.77809 -3.46555 8.6608e-19)
(3.10065 -3.59269 -1.45341e-18)
(3.79554 -4.14788 6.97322e-19)
(1.93528 -2.7123 3.18928e-18)
(1.93382 -2.72933 -3.0644e-18)
(1.94582 -2.74892 -3.07033e-18)
(1.9702 -2.77485 3.00051e-18)
(2.0082 -2.81055 2.83019e-18)
(2.06312 -2.85955 -8.40472e-18)
(2.13831 -2.92701 2.66619e-18)
(2.23529 -3.02314 0)
(2.3589 -3.16124 1.42966e-18)
(2.52277 -3.36535 0)
(2.78696 -3.59979 1.91668e-18)
(3.42338 -4.13529 -1.37908e-18)
(1.765 -2.53713 0)
(1.76665 -2.54862 -7.2493e-18)
(1.78153 -2.56212 -3.75661e-18)
(1.8069 -2.58168 -6.45374e-18)
(1.84303 -2.61074 3.2367e-18)
(1.89237 -2.65302 3.05931e-18)
(1.95614 -2.71406 0)
(2.03145 -2.80868 0)
(2.11921 -2.95764 0)
(2.22435 -3.19731 0)
(2.38945 -3.51505 -5.87055e-19)
(2.8788 -4.06504 -8.21602e-20)
(1.61977 -2.38509 4.22546e-18)
(1.62354 -2.39012 3.75293e-18)
(1.63979 -2.39503 1.55706e-17)
(1.66444 -2.40319 4.04234e-18)
(1.69683 -2.41672 1.50556e-17)
(1.73852 -2.43879 -3.64277e-18)
(1.78782 -2.47432 -3.72396e-18)
(1.83456 -2.5442 0)
(1.87502 -2.67873 -3.71133e-18)
(1.90123 -2.92447 -2.06082e-18)
(1.89991 -3.30261 -1.59848e-18)
(1.93834 -3.83289 -7.75297e-26)
(1.4984 -2.25545 0)
(1.50491 -2.25434 0)
(1.52284 -2.24727 -1.74238e-17)
(1.54657 -2.23712 -1.25304e-17)
(1.57514 -2.22344 -3.8974e-18)
(1.60954 -2.20824 0)
(1.64592 -2.19672 3.92068e-18)
(1.66435 -2.21838 0)
(1.65628 -2.30927 -1.78563e-19)
(1.59379 -2.5037 1.96369e-18)
(1.37461 -2.90244 5.22475e-19)
(0.484451 -3.26046 3.00885e-18)
(0.0384638 -2.2179 6.97902e-20)
(0.000899217 -1.88653 2.73066e-19)
(-0.0888824 -1.63614 -3.16083e-19)
(-0.213162 -1.57168 3.08196e-19)
(-0.436301 -1.78025 0)
(-1.383 -1.77243 9.76462e-20)
(-2.92148 -2.03155 0)
(-3.46696 -2.90428 2.16098e-19)
(-3.81675 -3.28801 2.11205e-18)
(-4.27297 -3.68041 -9.68001e-19)
(-4.68543 -3.7641 -2.70966e-18)
(-5.07432 -3.82956 1.79637e-18)
(0.650989 -2.8085 3.00721e-19)
(0.346327 -2.31937 -1.371e-19)
(-0.181786 -2.45033 1.61498e-19)
(-1.13452 -2.59175 -1.45573e-19)
(-2.33116 -3.09301 -3.01472e-19)
(-3.2134 -3.45973 -8.93858e-20)
(-3.58357 -3.58508 -9.32609e-19)
(-3.64168 -3.77382 -1.62202e-18)
(-3.72298 -3.87687 2.59109e-18)
(-3.87472 -3.99216 -5.34754e-19)
(-4.00127 -4.05285 8.07261e-19)
(-4.16004 -4.06423 6.56055e-19)
(0.50956 -3.16352 -2.34516e-19)
(-0.236715 -2.81033 0)
(-1.24311 -3.07122 0)
(-2.33698 -3.34929 -6.24579e-19)
(-3.17248 -3.55514 0)
(-3.59225 -3.55025 -8.33065e-19)
(-3.78018 -3.50235 6.74187e-19)
(-3.86037 -3.50444 1.63456e-18)
(-3.92431 -3.49064 -1.06913e-18)
(-3.99276 -3.47588 -1.21106e-18)
(-4.06296 -3.44486 -1.84074e-18)
(-4.15186 -3.39938 1.6761e-18)
(0.217144 -3.40969 -1.68957e-18)
(-0.685164 -3.29435 -1.17629e-18)
(-1.7387 -3.49908 1.24124e-18)
(-2.70897 -3.58303 5.0719e-19)
(-3.28478 -3.5273 0)
(-3.56477 -3.46198 -2.77673e-18)
(-3.68181 -3.37131 2.36603e-18)
(-3.69859 -3.30083 0)
(-3.70773 -3.25231 2.03784e-18)
(-3.73106 -3.21641 -2.96854e-18)
(-3.76877 -3.18294 1.85134e-18)
(-3.82353 -3.14581 2.67326e-19)
(-0.127154 -3.55223 2.59611e-18)
(-1.01279 -3.54722 1.99793e-18)
(-1.98565 -3.62821 4.61835e-19)
(-2.80086 -3.54888 0)
(-3.24903 -3.43793 -1.68508e-18)
(-3.42804 -3.28802 3.45467e-18)
(-3.46941 -3.16468 0)
(-3.47412 -3.07277 -1.82479e-18)
(-3.48397 -3.00127 -1.55425e-18)
(-3.50363 -2.94498 2.42039e-18)
(-3.53393 -2.89929 0)
(-3.57486 -2.85806 -1.73799e-18)
(-0.38417 -3.67057 1.26567e-18)
(-1.21053 -3.71546 4.21401e-19)
(-2.06254 -3.69047 -1.68993e-18)
(-2.7557 -3.50827 -4.88313e-18)
(-3.10799 -3.31011 -1.18911e-19)
(-3.21895 -3.11557 5.00192e-18)
(-3.24669 -2.96528 0)
(-3.25287 -2.84952 5.60274e-18)
(-3.26193 -2.76108 -3.10687e-18)
(-3.27795 -2.69397 2.75496e-18)
(-3.30155 -2.6434 2.12597e-19)
(-3.33187 -2.60385 2.53515e-20)
(-0.558493 -3.80599 -1.47418e-18)
(-1.29569 -3.87735 -1.07985e-18)
(-2.02768 -3.74909 0)
(-2.61979 -3.48901 5.6421e-18)
(-2.88696 -3.21162 -9.43838e-18)
(-2.98166 -2.97137 -2.02292e-19)
(-3.013 -2.78458 -1.01215e-17)
(-3.02664 -2.64299 2.92765e-19)
(-3.03996 -2.53742 -3.53044e-18)
(-3.05678 -2.46023 -3.30652e-18)
(-3.07774 -2.4054 3.1756e-18)
(-3.10216 -2.36727 -2.62253e-18)
(-0.6601 -4.00261 -1.14749e-19)
(-1.29326 -4.09187 -1.48878e-18)
(-1.90583 -3.86981 0)
(-2.38078 -3.53247 4.45469e-18)
(-2.62289 -3.17026 3.32391e-18)
(-2.72655 -2.86774 2.91763e-18)
(-2.77416 -2.63448 -3.24135e-19)
(-2.80213 -2.46098 4.19186e-20)
(-2.82459 -2.33477 -4.14052e-18)
(-2.84591 -2.24579 -3.27953e-19)
(-2.86727 -2.18608 2.01036e-19)
(-2.88863 -2.14884 0)
(-0.724777 -4.20116 2.43943e-18)
(-1.26095 -4.3817 0)
(-1.71466 -4.07517 0)
(-2.09322 -3.65239 -4.66118e-18)
(-2.32416 -3.20821 4.00216e-18)
(-2.45551 -2.82745 -7.49454e-18)
(-2.53278 -2.53255 0)
(-2.58323 -2.31534 5.15837e-18)
(-2.62067 -2.16076 -2.41989e-19)
(-2.65021 -2.0558 3.86245e-18)
(-2.67429 -1.98899 -3.81871e-18)
(-2.69437 -1.95121 7.07081e-18)
(-0.832791 -4.606 5.00392e-18)
(-1.1313 -4.71555 -1.50506e-18)
(-1.43153 -4.27249 -5.80602e-18)
(-1.74379 -3.77164 -9.80007e-18)
(-1.98578 -3.27289 0)
(-2.15962 -2.83019 7.07659e-18)
(-2.28236 -2.47631 -1.31322e-17)
(-2.3675 -2.21131 5.55829e-18)
(-2.42791 -2.02292 5.35008e-18)
(-2.47096 -1.89649 0)
(-2.5014 -1.8187 -4.62731e-18)
(-2.52216 -1.7781 -7.50518e-18)
(-1.19988 -4.61321 -5.7614e-18)
(-0.92388 -4.62466 1.41304e-18)
(-1.02112 -4.1199 4.61262e-18)
(-1.31496 -3.61215 4.01581e-18)
(-1.59592 -3.16139 1.9565e-20)
(-1.8287 -2.74284 -1.04316e-17)
(-2.01073 -2.39073 1.24322e-17)
(-2.14494 -2.11091 2.32228e-17)
(-2.24015 -1.90358 -1.60002e-17)
(-2.30463 -1.76194 -1.04755e-17)
(-2.34678 -1.67458 9.28194e-18)
(-2.37188 -1.63067 0)
(-0.189895 -3.6411 3.82801e-18)
(-0.329623 -3.5457 1.60534e-18)
(-0.540745 -3.21186 1.68269e-18)
(-0.868882 -2.90579 6.78361e-18)
(-1.19507 -2.64725 0)
(-1.4851 -2.38651 5.68126e-18)
(-1.72406 -2.14063 -1.10984e-17)
(-1.91082 -1.92437 -5.0986e-18)
(-2.04969 -1.74885 -5.11835e-18)
(-2.14565 -1.62118 9.62166e-18)
(-2.20754 -1.54027 4.99214e-18)
(-2.24212 -1.50144 1.4226e-17)
(-5.37193 -3.71409 6.19443e-19)
(-5.61207 -3.57312 1.45018e-19)
(-5.74202 -3.33228 1.51451e-18)
(-5.79913 -3.07973 -4.21896e-18)
(-5.75824 -2.77079 1.70824e-18)
(-5.62101 -2.46856 0)
(-5.36785 -2.15153 -1.04427e-19)
(-5.00437 -1.86135 3.05241e-20)
(-4.51967 -1.5855 0)
(-3.85609 -1.30568 4.8584e-20)
(-3.1413 -0.939074 0)
(-2.78744 -0.187327 0)
(-4.31724 -4.01254 -1.43085e-18)
(-4.47697 -3.91154 1.61162e-18)
(-4.6248 -3.75527 7.55222e-19)
(-4.7479 -3.55615 -2.42985e-19)
(-4.81219 -3.3378 0)
(-4.81267 -3.11265 0)
(-4.73795 -2.89456 9.3047e-19)
(-4.586 -2.704 -1.02502e-18)
(-4.35538 -2.56307 0)
(-3.91911 -2.46018 5.00317e-19)
(-3.47233 -2.36804 -7.65552e-20)
(-3.38906 -2.11574 -8.88107e-19)
(-4.24679 -3.33282 7.49791e-19)
(-4.33778 -3.24934 -1.14182e-18)
(-4.41127 -3.15293 0)
(-4.45522 -3.05029 -1.28652e-18)
(-4.4617 -2.94745 -1.49193e-18)
(-4.42577 -2.85557 3.42811e-18)
(-4.34237 -2.78535 -3.2826e-18)
(-4.21166 -2.75211 0)
(-4.04031 -2.77354 0)
(-3.76701 -2.85343 0)
(-3.4179 -2.92363 -3.80943e-19)
(-3.46081 -2.9167 8.3935e-20)
(-3.88616 -3.09951 -6.04139e-19)
(-3.94768 -3.04431 -3.06766e-19)
(-3.99886 -2.9828 0)
(-4.0315 -2.92144 -2.7257e-19)
(-4.04048 -2.86755 0)
(-4.02353 -2.82989 0)
(-3.97776 -2.81883 9.02394e-19)
(-3.90294 -2.84536 -1.19231e-18)
(-3.80727 -2.92484 1.35043e-18)
(-3.67503 -3.07539 0)
(-3.39697 -3.29258 -2.80795e-19)
(-3.66088 -3.60262 -2.79599e-19)
(-3.62059 -2.81794 3.92838e-18)
(-3.66486 -2.77884 -1.0118e-18)
(-3.70241 -2.7429 1.70345e-18)
(-3.72807 -2.71623 6.88944e-19)
(-3.73982 -2.70312 -2.51328e-18)
(-3.7393 -2.70755 0)
(-3.72361 -2.74219 -1.0898e-18)
(-3.69375 -2.81519 0)
(-3.65385 -2.94011 0)
(-3.61334 -3.13357 7.77701e-19)
(-3.39971 -3.42605 6.40281e-20)
(-3.79773 -3.88098 3.43239e-19)
(-3.36545 -2.5722 -1.92924e-18)
(-3.39856 -2.5477 -1.51561e-19)
(-3.42831 -2.5322 0)
(-3.4526 -2.5287 0)
(-3.47415 -2.54081 -3.19223e-18)
(-3.49155 -2.57414 2.01856e-18)
(-3.50527 -2.63627 2.10029e-18)
(-3.51787 -2.73541 1.11685e-18)
(-3.5336 -2.88507 -2.73031e-18)
(-3.55803 -3.1105 -6.40071e-19)
(-3.45398 -3.4526 0)
(-3.96389 -4.04693 3.28833e-19)
(-3.1283 -2.34212 -5.04097e-18)
(-3.15456 -2.32823 2.04131e-18)
(-3.18055 -2.32629 2.25308e-18)
(-3.20746 -2.33798 1.30396e-19)
(-3.23705 -2.36604 -2.92082e-19)
(-3.27048 -2.41527 -2.36054e-18)
(-3.31001 -2.4918 -3.48291e-18)
(-3.36005 -2.60203 -1.28803e-18)
(-3.42589 -2.75649 1.23274e-18)
(-3.51904 -2.97611 0)
(-3.55245 -3.32162 1.26187e-18)
(-4.05035 -3.98104 -2.91093e-19)
(-2.90963 -2.12884 5.42202e-18)
(-2.93094 -2.12278 -2.96323e-18)
(-2.95413 -2.12998 -2.70756e-18)
(-2.98191 -2.15073 -4.88798e-18)
(-3.01698 -2.18705 4.83671e-18)
(-3.06202 -2.24309 -1.44228e-19)
(-3.1209 -2.32358 7.51582e-18)
(-3.20045 -2.43288 1.21524e-18)
(-3.30923 -2.57923 1.52235e-18)
(-3.46442 -2.78152 0)
(-3.59192 -3.10379 -8.8746e-19)
(-4.14744 -3.79816 -3.88642e-19)
(-2.71127 -1.93478 0)
(-2.72784 -1.93398 2.90254e-18)
(-2.74706 -1.94671 2.80106e-18)
(-2.77269 -1.97177 -2.86655e-18)
(-2.8082 -2.01036 -1.18041e-19)
(-2.85711 -2.06578 -2.92767e-18)
(-2.92458 -2.14133 -2.66308e-18)
(-3.02086 -2.23851 0)
(-3.15924 -2.36212 -1.42862e-18)
(-3.36378 -2.52579 -9.31311e-19)
(-3.59874 -2.78966 3.1022e-18)
(-4.1346 -3.42554 -6.44271e-19)
(-2.53531 -1.76365 0)
(-2.54634 -1.76599 0)
(-2.55946 -1.78167 0)
(-2.57873 -1.8078 -1.01069e-17)
(-2.60762 -1.84462 6.4445e-18)
(-2.64985 -1.89454 6.24167e-18)
(-2.71096 -1.95872 0)
(-2.80581 -2.03423 -3.31973e-18)
(-2.95518 -2.12199 0)
(-3.19538 -2.22697 -2.03104e-18)
(-3.51366 -2.39166 -5.86511e-19)
(-4.06421 -2.88011 -8.64726e-19)
(-2.38265 -1.61774 0)
(-2.38721 -1.62219 0)
(-2.39173 -1.63928 8.03094e-18)
(-2.39958 -1.66474 1.10985e-17)
(-2.41294 -1.69787 3.5854e-19)
(-2.43502 -1.74018 3.75676e-18)
(-2.47068 -1.78996 -1.82496e-18)
(-2.54091 -1.8369 5.20309e-18)
(-2.67594 -1.87735 3.70989e-18)
(-2.92225 -1.90336 1.89867e-18)
(-3.30097 -1.90158 -1.59805e-18)
(-3.83203 -1.93871 -1.40551e-18)
(-2.25254 -1.49604 0)
(-2.25104 -1.50305 0)
(-2.24352 -1.5218 -8.43442e-18)
(-2.23302 -1.54637 4.51224e-18)
(-2.21917 -1.57569 -3.89217e-18)
(-2.20403 -1.61074 -3.9582e-18)
(-2.19272 -1.64764 4.13384e-18)
(-2.21488 -1.66623 0)
(-2.30632 -1.65816 -3.77919e-18)
(-2.50129 -1.59549 -2.04238e-18)
(-2.90064 -1.37572 2.01679e-18)
(-3.25933 -0.483941 -2.99508e-18)
(-2.21815 -0.0388563 6.72926e-20)
(-1.88629 -0.00112322 0)
(-1.63615 0.0888795 0)
(-1.57108 0.213642 1.54317e-18)
(-1.77867 0.435005 -1.15032e-18)
(-1.77319 1.37776 0)
(-2.02486 2.91616 0)
(-2.89986 3.46519 2.16315e-19)
(-3.28317 3.81283 4.32843e-19)
(-3.67609 4.2697 -5.61073e-19)
(-3.75949 4.68112 -2.95742e-18)
(-3.82528 5.07031 1.19662e-18)
(-2.80841 -0.651483 -3.98036e-19)
(-2.31895 -0.346771 0)
(-2.44979 0.180002 0)
(-2.59023 1.12993 -4.34309e-19)
(-3.08939 2.32539 6.27778e-19)
(-3.45816 3.2086 -1.08576e-18)
(-3.58388 3.58141 1.06863e-18)
(-3.77133 3.64065 6.86391e-19)
(-3.87419 3.72046 -9.60786e-20)
(-3.98934 3.87234 7.12638e-19)
(-4.04991 3.99827 0)
(-4.06129 4.15701 -9.69865e-20)
(-3.16363 -0.51057 2.33345e-19)
(-2.81003 0.233964 0)
(-3.06992 1.23922 0)
(-3.34755 2.33259 -4.2378e-19)
(-3.5535 3.16965 3.12738e-19)
(-3.54932 3.59041 -1.09455e-18)
(-3.50121 3.77834 0)
(-3.50314 3.85836 -2.37878e-18)
(-3.48892 3.92184 2.64129e-18)
(-3.47409 3.99043 -6.60236e-19)
(-3.44281 4.06037 -1.26732e-18)
(-3.39717 4.14921 1.68213e-18)
(-3.41002 -0.218566 -8.41834e-19)
(-3.29397 0.682106 1.17905e-18)
(-3.49837 1.73516 0)
(-3.58279 2.70578 5.06271e-19)
(-3.52728 3.28256 -5.47537e-19)
(-3.46179 3.56279 8.81661e-19)
(-3.37107 3.67985 0)
(-3.30051 3.69666 -1.62046e-18)
(-3.25176 3.70565 -3.47269e-18)
(-3.21556 3.72888 2.11905e-18)
(-3.18185 3.76648 1.85641e-18)
(-3.14448 3.82122 -3.69588e-18)
(-3.55273 0.125445 1.29831e-18)
(-3.54718 1.00993 -8.23927e-19)
(-3.6284 1.98254 1.5444e-18)
(-3.54952 2.79845 0)
(-3.43842 3.247 -3.55356e-18)
(-3.28876 3.42635 3.94755e-18)
(-3.1652 3.4677 2.14213e-18)
(-3.07317 3.4723 1.42803e-18)
(-3.00149 3.48206 0)
(-2.94499 3.50171 0)
(-2.89904 3.53203 0)
(-2.85754 3.573 -4.7097e-19)
(-3.67105 0.382044 3.0357e-18)
(-3.71561 1.20794 0)
(-3.69086 2.06016 -1.70667e-18)
(-3.50925 2.7536 2.53241e-18)
(-3.31136 3.1064 2.3573e-18)
(-3.11687 3.21748 -4.66175e-18)
(-2.9665 3.24517 2.38241e-18)
(-2.85063 3.25128 -7.61258e-18)
(-2.76206 3.26033 1.24837e-20)
(-2.69476 3.27641 -2.13795e-19)
(-2.64395 3.3001 2.12951e-19)
(-2.60413 3.33055 6.86965e-18)
(-3.80667 0.556401 -5.19571e-18)
(-3.87792 1.29348 2.84518e-18)
(-3.75015 2.02569 -3.78845e-18)
(-3.49028 2.61838 -2.64793e-18)
(-3.21325 2.88574 -5.93139e-18)
(-2.97312 2.98043 -3.35406e-18)
(-2.78635 3.01169 -4.91056e-18)
(-2.6447 3.02533 7.88863e-18)
(-2.53904 3.0387 0)
(-2.4617 3.05565 6.2127e-18)
(-2.40667 3.07677 -8.43754e-18)
(-2.36828 3.10139 2.79876e-18)
(-4.0034 0.658686 -3.09657e-18)
(-4.09275 1.29157 -4.52239e-18)
(-3.87133 1.90431 6.18687e-18)
(-3.5341 2.37977 0)
(-3.17211 2.62198 -4.0473e-18)
(-2.86976 2.72555 6.23553e-18)
(-2.63661 2.7731 -3.15858e-19)
(-2.46315 2.80111 -4.15464e-20)
(-2.33689 2.82368 -4.02294e-18)
(-2.24781 2.84518 -7.07753e-18)
(-2.18793 2.86676 3.04374e-18)
(-2.15045 2.88837 -2.96602e-18)
(-4.2019 0.723916 2.44086e-18)
(-4.38289 1.25998 0)
(-4.0769 1.71374 0)
(-3.65431 2.0925 0)
(-3.21026 2.32344 4.00954e-18)
(-2.82961 2.45472 0)
(-2.53486 2.53198 -2.65972e-19)
(-2.31776 2.5825 1.04098e-17)
(-2.1632 2.62008 1.40868e-19)
(-2.05819 2.64984 3.87311e-18)
(-1.99126 2.67419 -3.66501e-18)
(-1.95328 2.69458 1.05205e-17)
(-4.60691 0.832838 4.0384e-20)
(-4.71678 1.13086 8.06831e-18)
(-4.27415 1.43085 -2.66628e-18)
(-3.77358 1.74317 0)
(-3.27497 1.98514 0)
(-2.83238 2.15898 0)
(-2.47865 2.28177 0)
(-2.2138 2.36699 5.69015e-18)
(-2.02549 2.42757 -2.05884e-17)
(-1.89907 2.47087 -9.50406e-18)
(-1.8212 2.50162 8.70529e-18)
(-1.78045 2.52274 4.45257e-18)
(-4.61347 1.20043 -5.75686e-18)
(-4.62551 0.923707 -4.39648e-18)
(-4.12084 1.0207 -2.71446e-18)
(-3.61337 1.31434 0)
(-3.16289 1.59527 0)
(-2.74461 1.82806 7.06394e-18)
(-2.39275 2.0102 -1.26373e-17)
(-2.11319 2.14453 2.34684e-17)
(-1.90603 2.23996 1.61737e-17)
(-1.76448 2.30473 9.95898e-18)
(-1.67712 2.3472 -9.30866e-18)
(-1.63312 2.3727 5.40577e-19)
(-3.64078 0.190305 -1.28732e-18)
(-3.54505 0.329456 0)
(-3.21146 0.540165 3.2459e-18)
(-2.90568 0.868155 -1.01227e-17)
(-2.64752 1.19431 9.3837e-18)