/*--------------------------------*- C++ -*----------------------------------*\
| =========                 |                                                 |
| \\      /  F ield         | OpenFOAM: The Open Source CFD Toolbox           |
|  \\    /   O peration     | Version:  4.0                                   |
|   \\  /    A nd           | Web:      www.OpenFOAM.org                      |
|    \\/     M anipulation  |                                                 |
\*---------------------------------------------------------------------------*/
FoamFile
{
    version     2.0;
    format      ascii;
    class       volScalarField;
    location    "450";
    object      epsilon;
}
// * * * * * * * * * * * * * * * * * * * * * * * * * * * * * * * * * * * * * //

dimensions      [0 2 -3 0 0 0 0];

internalField   nonuniform List<scalar> 
3072
(
3.59752
3.06746
3.58424
3.59758
3.32885
2.76573
2.82342
4.71379
22.0375
39.6351
47.751
52.7849
7.20678
6.45603
5.28216
5.0268
5.5941
10.8458
21.1151
23.362
29.2415
34.1252
35.387
36.1409
8.9345
7.15947
9.52006
14.224
17.8107
18.2172
20.0749
22.951
26.4894
28.056
29.1631
30.2335
12.9827
10.4594
13.574
15.3943
16.2931
17.084
19.899
22.7927
24.9267
26.0518
27.0511
27.96
14.8919
12.1611
14.0281
14.6002
15.4677
17.5687
20.5198
23.0803
24.7677
25.6698
26.4354
27.1312
15.7831
12.5297
13.6908
14.3545
16.0853
18.89
21.7126
23.7859
25.1127
25.9111
26.549
27.1048
16.1396
12.1494
13.0719
14.883
17.6415
20.7846
23.4406
25.2885
26.3875
27.0644
27.5655
27.9924
16.493
11.9486
13.6969
17.0881
21.1711
24.7343
27.2982
28.9147
29.7859
30.2284
30.4717
30.6336
17.6564
12.9826
17.4518
23.7523
29.6182
33.7146
36.0789
37.1523
37.3532
37.0599
36.552
35.9925
19.9938
17.4885
29.605
40.7778
48.594
52.5322
53.5187
52.7009
50.929
48.7563
46.5428
44.4763
24.8503
35.2925
60.5356
76.4778
82.4589
82.5002
79.3465
74.6614
69.4644
64.3074
59.5312
55.2723
114.548
108.181
118.78
122.008
119.27
111.952
103.542
94.9027
86.5575
78.7295
71.6494
65.3727
56.2279
57.9071
58.4505
58.1591
57.178
54.1745
50.1563
44.0759
36.9889
27.9614
18.5139
23.1306
36.6754
37.1592
37.5433
38.1029
38.858
40.14
42.6104
46.569
51.6594
57.5119
61.5279
75.1036
31.0352
31.6116
32.0478
32.5067
33.3687
35.0537
38.0632
43.0635
50.9524
62.8969
81.2255
120.102
28.6484
29.2051
29.7007
30.2755
31.1978
32.8816
35.9118
41.1486
49.8904
64.6798
92.4332
152.208
27.6859
28.1413
28.5595
29.0773
29.9404
31.5205
34.4044
39.5324
48.5501
64.8989
98.8975
177.846
27.5511
27.9383
28.3204
28.8164
29.6444
31.1547
33.9294
38.9122
47.8276
64.7005
102.469
200.925
28.3728
28.7261
29.0946
29.5695
30.3294
31.6994
34.2433
38.938
47.6376
64.4125
104.486
221.637
30.7875
30.9524
31.1617
31.4885
32.0862
33.2314
35.4588
39.7524
48.0132
64.5198
105.352
246.589
35.4777
35.0609
34.7834
34.7335
35.0064
35.7821
37.5724
41.3367
49.0464
65.1503
106.808
276.028
42.6666
41.1633
39.9894
39.1957
38.9155
39.2966
40.5398
43.6466
50.6347
66.1197
108.322
307.391
51.6213
48.6109
46.2198
44.4639
43.3902
43.2857
44.0754
46.4656
52.5248
67.1426
110.36
346.685
59.9919
55.5744
52.065
49.4602
47.728
47.0669
47.5318
49.2448
53.9526
67.0775
110.583
412.438
3.59377
3.06525
3.58288
3.59669
3.32882
2.76586
2.82336
4.71074
22.0235
39.6313
47.7521
52.7866
7.20509
6.45555
5.28209
5.02681
5.59401
10.8408
21.1151
23.364
29.2385
34.127
35.3897
36.1435
8.93356
7.15853
9.51726
14.2216
17.8146
18.2219
20.0748
22.9507
26.4894
28.0573
29.1642
30.2347
12.9812
10.458
13.573
15.3966
16.2971
17.0846
19.8977
22.7924
24.9269
26.0526
27.0519
27.9609
14.8901
12.16
14.0289
14.6019
15.4681
17.5684
20.5187
23.0803
24.7682
25.6706
26.436
27.132
15.781
12.5294
13.6913
14.3549
16.0854
18.8894
21.7127
23.7864
25.1134
25.9119
26.5497
27.1055
16.1394
12.1495
13.0726
14.8836
17.6421
20.7854
23.4416
25.2898
26.3887
27.0654
27.5663
27.993
16.4944
11.95
13.6983
17.09
21.1735
24.737
27.301
28.9171
29.7878
30.2298
30.4726
30.6342
17.66
12.985
17.4551
23.7569
29.6238
33.7204
36.0843
37.1567
37.3565
37.0622
36.5534
35.9934
19.9991
17.4925
29.6109
40.7859
48.6036
52.5417
53.5269
52.7075
50.9339
48.7597
46.545
44.4776
24.8562
35.2979
60.5431
76.4874
82.4693
82.5104
79.3557
74.6689
69.4702
64.3116
59.534
55.274
114.552
108.183
118.782
122.011
119.275
111.958
103.549
94.9089
86.5627
78.7336
71.6524
65.3747
56.2316
57.9115
58.4563
58.165
57.1847
54.1812
50.1631
44.082
36.9941
27.9655
18.5172
23.1356
36.6781
37.162
37.5468
38.1069
38.8623
40.1448
42.6159
46.5752
51.6664
57.5196
61.5368
75.1166
31.0368
31.6136
32.0501
32.5095
33.372
35.0574
38.0676
43.0687
50.9587
62.9048
81.2361
120.119
28.6495
29.2064
29.7024
30.2776
31.2002
32.8846
35.9154
41.1532
49.8962
64.6877
92.4448
152.228
27.6867
28.1423
28.5608
29.0789
29.9423
31.5229
34.4074
39.5362
48.5553
64.9064
98.9094
177.868
27.5518
27.9391
28.3213
28.8176
29.646
31.1567
33.932
38.9156
47.8324
64.7077
102.481
200.949
28.3734
28.7267
29.0954
29.5705
30.3307
31.7011
34.2455
38.9411
47.642
64.4192
104.498
221.663
30.788
30.9529
31.1623
31.4893
32.0872
33.2329
35.4608
39.7552
48.0172
64.5262
105.364
246.618
35.4783
35.0614
34.7839
34.7341
35.0072
35.7833
37.5742
41.3391
49.0501
65.1561
106.819
276.06
42.6673
41.1638
39.9898
39.1962
38.9163
39.2977
40.5413
43.6488
50.638
66.1251
108.332
307.427
51.6223
48.6115
46.2202
44.4644
43.3909
43.2868
44.0768
46.4676
52.5278
67.1476
110.371
346.724
59.9932
55.5752
52.0656
49.4609
47.7287
47.0681
47.5332
49.2466
53.9552
67.0817
110.592
412.483
3.59179
3.06292
3.57994
3.59334
3.32482
2.76259
2.82128
4.71725
22.0642
39.6545
47.7678
52.8033
7.20123
6.45205
5.27931
5.02429
5.59128
10.8485
21.1181
23.3657
29.255
34.1347
35.3963
36.1508
8.92916
7.15692
9.51888
14.2241
17.8071
18.2144
20.0805
22.9589
26.4982
28.0638
29.1718
30.2425
12.9798
10.4584
13.5734
15.3923
16.2905
17.087
19.9061
22.7998
24.934
26.0591
27.0589
27.968
14.8914
12.1611
14.0273
14.5994
15.4699
17.5729
20.5264
23.0866
24.7738
25.6762
26.4424
27.1386
15.7846
12.5302
13.6909
14.356
16.0882
18.8946
21.7176
23.7911
25.1181
25.9171
26.5556
27.1119
16.141
12.1499
13.0727
14.8848
17.6444
20.7883
23.4447
25.2928
26.3924
27.0699
27.5718
27.9993
16.4941
11.9488
13.6978
17.0897
21.1734
24.737
27.3015
28.9185
29.7904
30.2337
30.4778
30.6402
17.6565
12.9825
17.4523
23.7531
29.6195
33.7164
36.0815
37.1557
37.3575
37.0649
36.5576
35.9987
19.9928
17.4882
29.6055
40.7782
48.5945
52.5333
53.5206
52.7038
50.9326
48.7606
46.5476
44.4816
24.8499
35.2942
60.5382
76.4796
82.4601
82.5014
79.3481
74.6636
69.4672
64.3106
59.5348
55.2762
114.565
108.191
118.787
122.011
119.272
111.953
103.543
94.9042
86.5592
78.7315
71.6516
65.3751
56.2456
57.9247
58.4669
58.1751
57.1923
54.1876
50.167
44.085
36.9957
27.9659
18.5166
23.1342
36.6853
37.169
37.5519
38.111
38.8657
40.1473
42.6174
46.5764
51.6671
57.52
61.536
75.1145
31.0439
31.62
32.0559
32.5146
33.3764
35.0613
38.0709
43.0717
50.9615
62.9074
81.2374
120.12
28.6564
29.2131
29.7087
30.2834
31.2057
32.8896
35.9201
41.1575
49.9003
64.6915
92.4488
152.234
27.6936
28.1492
28.5675
29.0855
29.9486
31.5289
34.4132
39.5418
48.5606
64.9115
98.9151
177.877
27.5585
27.9461
28.3284
28.8246
29.6528
31.1633
33.9384
38.9219
47.8388
64.714
102.487
200.962
28.3802
28.7338
29.1027
29.5778
30.3378
31.7081
34.2524
38.9479
47.6489
64.4265
104.506
221.679
30.7947
30.9599
31.1695
31.4966
32.0944
33.24
35.4678
39.7622
48.0244
64.534
105.373
246.638
35.4843
35.0679
34.7907
34.741
35.0141
35.7901
37.581
41.3461
49.0574
65.1642
106.829
276.083
42.6722
41.1693
39.9956
39.2022
38.9224
39.3038
40.5475
43.6554
50.645
66.133
108.343
307.454
51.6254
48.6153
46.2245
44.469
43.3957
43.2918
44.0819
46.4732
52.5341
67.155
110.381
346.754
59.9945
55.5772
52.0682
49.4639
47.732
47.0717
47.537
49.2508
53.96
67.0879
110.602
412.519
3.59366
3.06497
3.58265
3.5964
3.32836
2.76554
2.8234
4.71364
22.0391
39.6419
47.7604
52.7955
7.20515
6.45553
5.2822
5.02711
5.59458
10.8458
21.1186
23.3664
29.2461
34.1317
35.394
36.148
8.93378
7.1592
9.51924
14.2246
17.8151
18.2222
20.0785
22.9549
26.4939
28.0609
29.1681
30.2387
12.9819
10.4593
13.5749
15.3977
16.2977
17.0869
19.9014
22.7959
24.9305
26.0559
27.0553
27.9644
14.8912
12.1615
14.0303
14.6032
15.47
17.5709
20.522
23.0834
24.7711
25.6734
26.4391
27.1352
15.7822
12.5306
13.6927
14.3564
16.0873
18.8918
21.7151
23.7889
25.1159
25.9145
26.5525
27.1085
16.1401
12.1504
13.0737
14.8849
17.6436
20.7871
23.4434
25.2916
26.3907
27.0677
27.5689
27.9958
16.4945
11.9503
13.6991
17.0908
21.1743
24.7378
27.3019
28.9182
29.7892
30.2317
30.4749
30.6368
17.6595
12.985
17.4553
23.7569
29.6236
33.7201
36.0841
37.1568
37.3571
37.0633
36.5551
35.9955
19.9984
17.4926
29.6112
40.7857
48.6026
52.5403
53.5255
52.7065
50.9334
48.7599
46.5459
44.479
24.8566
35.2998
60.5452
76.4882
82.4687
82.5088
79.3536
74.6669
69.4687
64.3107
59.5338
55.2745
114.567
108.193
118.79
122.016
119.277
111.958
103.547
94.9071
86.5609
78.7322
71.6515
65.3744
56.2398
57.9196
58.4636
58.1721
57.191
54.1867
50.1675
44.0855
36.9965
27.967
18.518
23.1369
36.6826
37.1664
37.5505
38.1103
38.8655
40.1477
42.6186
46.5779
51.6691
57.5221
61.5394
75.1201
31.0405
31.6171
32.0534
32.5125
33.3748
35.0601
38.0701
43.0711
50.9613
62.9077
81.2395
120.124
28.6529
29.2098
29.7056
30.2806
31.2031
32.8874
35.9181
41.1558
49.8989
64.6907
92.4487
152.236
27.69
28.1456
28.564
29.0821
29.9454
31.5259
34.4103
39.5391
48.5582
64.9096
98.9135
177.877
27.5549
27.9423
28.3246
28.8208
29.6492
31.1599
33.9352
38.9188
47.8357
64.7111
102.485
200.959
28.3764
28.7298
29.0986
29.5737
30.3339
31.7043
34.2488
38.9444
47.6455
64.423
104.502
221.675
30.7909
30.9559
31.1654
31.4925
32.0904
33.2361
35.4642
39.7587
48.0209
64.5303
105.369
246.63
35.4807
35.0641
34.7867
34.7371
35.0103
35.7864
37.5775
41.3426
49.0539
65.1604
106.825
276.074
42.6692
41.166
39.9922
39.1988
38.9191
39.3006
40.5444
43.6522
50.6417
66.1292
108.338
307.44
51.6233
48.613
46.2221
44.4666
43.3933
43.2894
44.0795
46.4706
52.5311
67.1514
110.376
346.738
59.9936
55.5762
52.067
49.4627
47.7309
47.0704
47.5356
49.2492
53.9579
67.0848
110.596
412.495
154.862
146.834
138.674
130.527
123.365
115.863
108.143
100.3
92.4371
84.6414
77.2929
70.5118
96.2225
97.6264
97.794
97.2977
96.3984
94.7147
92.3744
89.1746
84.8011
79.4514
73.9806
68.4874
68.3477
69.7461
70.6603
71.1842
71.5684
71.5119
71.0603
70.091
68.5333
66.5827
64.0845
60.8954
53.8957
54.4095
54.6329
54.6138
54.5744
54.4947
54.3483
54.0868
53.6576
53.0577
52.2865
51.3882
64.5313
59.6055
55.6825
52.7685
50.8305
49.8628
50.0725
51.1343
54.229
62.7251
85.7469
168.85
63.4116
59.2737
55.9951
53.5856
51.9687
51.0001
51.0006
51.5437
53.2326
57.4217
67.7476
91.9823
57.7861
55.3883
53.4358
51.9446
50.8282
49.9939
49.6495
49.7285
50.5723
52.3007
56.9671
65.5412
50.6622
49.8686
48.8641
47.8063
46.7946
45.93
45.4523
45.4078
46.0567
46.9567
49.3081
52.6684
154.85
146.826
138.668
130.524
123.366
115.865
108.146
100.304
92.4412
84.6451
77.2959
70.5141
96.2178
97.6224
97.7913
97.2963
96.3986
94.7162
92.3767
89.1778
84.8051
79.4552
73.9841
68.4904
68.3464
69.745
70.6597
71.1841
71.5696
71.5139
71.0631
70.0944
68.537
66.5867
64.0886
60.8991
53.8946
54.4091
54.6334
54.615
54.5763
54.4972
54.3514
54.0904
53.6615
53.0618
52.2906
51.3923
64.533
59.6068
55.6836
52.7696
50.8317
49.8642
50.074
51.136
54.2312
62.7283
85.7523
168.863
63.414
59.2757
55.9969
53.5873
51.9703
51.0017
51.0022
51.5454
53.2344
57.424
67.7509
91.9876
57.7895
55.3913
53.4384
51.947
50.8302
49.9957
49.6511
49.73
50.5738
52.3023
56.9692
65.544
50.6661
49.8721
48.8672
47.8088
46.7966
45.9315
45.4537
45.4092
46.058
46.9581
49.3098
52.6703
154.862
146.837
138.678
130.53
123.367
115.865
108.144
100.301
92.4383
84.6427
77.2942
70.5132
96.2232
97.6285
97.797
97.3008
96.4013
94.7173
92.3768
89.1768
84.8028
79.453
73.9821
68.4886
68.3496
69.7485
70.6633
71.1876
71.5719
71.5154
71.0638
70.0943
68.5364
66.5854
64.0868
60.897
53.8967
54.4114
54.6357
54.6171
54.578
54.4984
54.3521
54.0905
53.6611
53.0609
52.2893
51.3908
64.5327
59.6071
55.6844
52.7709
50.8333
49.8661
50.0762
51.1385
54.2344
62.7326
85.759
168.88
63.4126
59.2748
55.9964
53.5871
51.9705
51.0024
51.0031
51.5466
53.2362
57.4267
67.7554
91.9957
57.7875
55.3896
53.437
51.9458
50.8294
49.9953
49.6515
49.7307
50.5752
52.3046
56.973
65.5496
50.6645
49.8705
48.8658
47.8078
46.7962
45.9317
45.4551
45.4111
46.0608
46.9617
49.3144
52.676
154.874
146.843
138.681
130.533
123.372
115.869
108.148
100.305
92.4412
84.6446
77.2956
70.5141
96.2322
97.6363
97.8038
97.3076
96.4083
94.7242
92.3835
89.1829
84.8078
79.4571
73.9856
68.4916
68.3563
69.7555
70.6704
71.1947
71.5794
71.523
71.0713
70.1016
68.5434
66.5919
64.0927
60.9021
53.9031
54.4183
54.6429
54.6244
54.5854
54.5059
54.3595
54.0978
53.6682
53.0676
52.2957
51.3967
64.5334
59.6077
55.685
52.7714
50.8337
49.8662
50.0761
51.138
54.2332
62.7303
85.7547
168.869
63.4154
59.2775
55.9989
53.5894
51.9724
51.0034
51.0038
51.5469
53.2359
57.4249
67.7522
91.9898
57.7924
55.3941
53.441
51.9492
50.8321
49.9971
49.6521
49.7308
50.5743
52.3028
56.9697
65.5451
50.6698
49.8751
48.8694
47.8104
46.7978
45.9322
45.4541
45.4095
46.0583
46.9584
49.3103
52.6718
44.5558
44.2334
43.8785
43.551
43.3731
43.2775
43.2409
43.2593
43.3247
43.4453
43.6074
43.7702
37.3591
36.9616
36.6408
36.4332
36.3691
36.4
36.5274
36.7869
37.1813
37.6367
38.0282
38.1825
32.0024
31.8225
31.7201
31.695
31.7212
31.7777
31.9049
32.2044
32.7811
33.5613
34.4318
35.0824
27.8913
27.9699
28.0804
28.1791
28.2161
28.1622
28.113
28.1933
28.6441
29.6313
31.7777
35.7558
43.7971
42.0616
40.4434
39.6225
39.182
39.2277
39.7792
40.6693
41.8304
43.0124
44.2746
44.9772
37.8671
34.4989
32.4721
31.9567
32.1603
32.965
34.1909
35.574
36.7949
37.6907
38.2992
38.1651
35.2496
28.758
26.2672
25.9067
26.4871
27.684
29.2071
30.6756
31.7921
32.5125
32.848
32.5749
39.5802
24.7795
21.4633
21.0931
21.858
23.1899
24.7594
26.1722
27.2033
27.8574
28.1641
28.0802
44.5564
44.2349
43.8809
43.5538
43.3763
43.2811
43.2448
43.2632
43.3286
43.4493
43.6113
43.7739
37.3608
36.964
36.6438
36.4367
36.3728
36.4037
36.5312
36.7906
37.185
37.6404
38.0319
38.1862
32.0046
31.8252
31.7234
31.6986
31.7248
31.7814
31.9085
32.2078
32.7844
33.5647
34.4354
35.0862
27.8937
27.9726
28.0834
28.1824
28.2196
28.1657
28.1163
28.1965
28.6472
29.6344
31.7813
35.7602
43.8006
42.0644
40.4457
39.6244
39.1835
39.229
39.7805
40.6706
41.8318
43.0137
44.2761
44.9787
37.8706
34.5014
32.4741
31.9583
32.1617
32.9663
34.1921
35.5753
36.7962
37.692
38.3006
38.1664
35.2534
28.7605
26.2691
25.9083
26.4885
27.6853
29.2084
30.6769
31.7935
32.5138
32.8493
32.5762
39.5856
24.7822
21.4652
21.0947
21.8594
23.1912
24.7607
26.1735
27.2046
27.8587
28.1654
28.0814
44.558
44.2364
43.8821
43.5547
43.3769
43.2813
43.2446
43.2627
43.3279
43.4484
43.6105
43.7734
37.3621
36.9651
36.6446
36.4371
36.3729
36.4036
36.531
36.7904
37.1849
37.6405
38.0327
38.1877
32.0057
31.8261
31.7239
31.6988
31.7249
31.7814
31.9085
32.2083
32.7853
33.5661
34.4383
35.0905
27.8947
27.9735
28.084
28.1828
28.2198
28.166
28.117
28.1976
28.6491
29.6374
31.7859
35.7671
43.8005
42.0648
40.4467
39.6262
39.1862
39.2324
39.7847
40.6753
41.837
43.0195
44.2825
44.9855
37.8731
34.5042
32.4775
31.9625
32.1667
32.9719
34.1982
35.5817
36.8028
37.6989
38.3076
38.1733
35.2586
28.7653
26.2741
25.9139
26.4946
27.6918
29.2153
30.6838
31.8004
32.5208
32.8561
32.5826
39.5954
24.7883
21.471
21.1007
21.8658
23.198
24.7677
26.1804
27.2113
27.8652
28.1716
28.087
44.565
44.2434
43.8891
43.5616
43.3836
43.2877
43.2507
43.2684
43.3331
43.453
43.6142
43.7761
37.3687
36.9715
36.6507
36.4429
36.3783
36.4086
36.5354
36.7939
37.1875
37.642
38.0328
38.1865
32.0116
31.8316
31.729
31.7033
31.7289
31.7847
31.9111
32.2092
32.7851
33.5647
34.4346
35.085
27.8997
27.9779
28.0879
28.1861
28.2224
28.1676
28.1173
28.1967
28.6464
29.6329
31.7792
35.758
43.8021
42.0653
40.4464
39.6249
39.184
39.2295
39.781
40.6711
41.8323
43.0145
44.2773
44.9803
37.8702
34.5015
32.4744
31.9589
32.1625
32.9672
34.1931
35.5762
36.7971
37.6931
38.302
38.1678
35.2521
28.7601
26.2693
25.9089
26.4895
27.6865
29.2097
30.6781
31.7947
32.515
32.8507
32.5773
39.5833
24.7816
21.4655
21.0953
21.8605
23.1926
24.7622
26.175
27.206
27.86
28.1668
28.0825
24.5133
24.8039
25.0695
25.2281
25.1874
24.8655
24.365
23.7853
23.2413
22.7951
22.8489
26.2896
21.5485
21.9874
22.3425
22.506
22.3109
21.6321
20.5051
18.9169
16.731
13.4867
7.99223
3.20289
18.8337
19.3623
19.753
19.8877
19.5281
18.5199
16.8329
14.4179
11.1767
7.06099
3.05159
1.84377
16.3042
16.8732
17.2714
17.3699
16.8951
15.6855
13.6908
10.9362
7.57577
4.16084
1.95963
1.72254
13.959
14.5336
14.9257
14.9983
14.4839
13.2328
11.209
8.54507
5.60251
3.09723
1.71265
1.68564
11.8271
12.3835
12.7631
12.8263
12.3413
11.1831
9.33066
6.99037
4.59076
2.73142
1.68542
1.60915
9.94784
10.4703
10.8339
10.9008
10.4889
9.51059
7.92973
5.98315
4.06932
2.62953
1.73586
1.45469
8.36368
8.84383
9.18877
9.26367
8.94654
8.18204
6.89529
5.32247
3.79709
2.62424
1.80353
1.24571
7.12934
7.56721
7.89297
7.98148
7.75704
7.18632
6.17072
4.91402
3.68253
2.67491
1.85042
0.984639
6.36026
6.77185
7.09093
7.19754
7.04961
6.61349
5.80612
4.78752
3.72771
2.78653
1.86688
0.69038
6.52995
6.97773
7.3387
7.48114
7.36778
6.94774
6.23158
5.31125
4.22696
3.11389
1.85754
0.39344
12.1495
13.1279
13.9759
14.3221
14.0867
13.257
11.8864
9.96344
7.48057
4.66528
2.19022
0.523751
64.4295
21.404
17.444
17.1539
18
19.3256
20.8164
22.1397
23.1249
23.7814
24.1779
24.353
38.4503
16.4597
13.9134
13.8756
14.7507
15.9997
17.3598
18.5813
19.5314
20.2265
20.7317
21.132
27.0081
12.6172
11.0065
11.1668
12.018
13.1549
14.3671
15.4774
16.3804
17.1002
17.7026
18.2642
19.7458
9.74173
8.68508
8.94518
9.7377
10.7467
11.8094
12.8009
13.6444
14.3617
15.0137
15.6593
14.6082
7.58172
6.84697
7.14058
7.85468
8.73363
9.65258
10.5219
11.2937
11.9805
12.6319
13.296
10.7555
5.93114
5.39712
5.68754
6.3191
7.0754
7.85995
8.61252
9.30146
9.93462
10.5512
11.188
7.85381
4.67015
4.25368
4.52581
5.08574
5.73415
6.39833
7.04272
7.64661
8.21448
8.77624
9.35932
5.68011
3.67331
3.35001
3.60382
4.11544
4.67764
5.24029
5.7898
6.31502
6.81713
7.31779
7.83725
3.98215
2.82085
2.62505
2.8878
3.38222
3.88623
4.37143
4.84546
5.30721
5.75413
6.20043
6.66122
2.61357
2.05724
2.04525
2.38529
2.9134
3.40059
3.84012
4.26358
4.68157
5.09014
5.50529
5.92958
1.54888
1.42086
1.67027
2.21726
2.84008
3.36623
3.82112
4.26371
4.71479
5.15789
5.61183
6.06882
1.14973
1.53566
2.68
3.93359
4.91885
5.7384
6.51835
7.38493
8.35977
9.32713
10.2636
11.1926
24.5153
24.8063
25.0723
25.2312
25.1907
24.8688
24.3681
23.7883
23.2442
22.7981
22.8523
26.2945
21.5503
21.9897
22.3451
22.5088
22.3139
21.6352
20.5081
18.9198
16.7338
13.4892
7.99426
3.20415
18.8352
19.3643
19.7552
19.8902
19.5309
18.5229
16.8358
14.4207
11.1792
7.06298
3.05277
1.84469
16.3056
16.8749
17.2734
17.3722
16.8977
15.6882
13.6935
10.9387
7.57788
4.16229
1.96046
1.72341
13.9603
14.5351
14.9275
15.0003
14.4863
13.2353
11.2115
8.54726
5.60426
3.09837
1.71333
1.68648
11.8284
12.385
12.7648
12.8281
12.3434
11.1853
9.33282
6.99228
4.59223
2.73238
1.68606
1.60993
9.94915
10.4717
10.8355
10.9025
10.4908
9.51257
7.93166
5.98482
4.07059
2.6304
1.73648
1.45538
8.36506
8.84522
9.19028
9.26529
8.94828
8.18384
6.89704
5.32397
3.79825
2.62507
1.80415
1.24629
7.13077
7.56863
7.89449
7.98307
7.75871
7.188
6.17234
4.91542
3.68364
2.67574
1.85107
0.985095
6.36179
6.77338
7.09254
7.19919
7.05129
6.61517
5.80772
4.7889
3.72884
2.7874
1.86754
0.690701
6.53153
6.97956
7.34062
7.48308
7.36972
6.94965
6.23338
5.31282
4.22829
3.11491
1.85823
0.393621
12.153
13.1318
13.9798
14.326
14.0906
13.2608
11.89
9.96655
7.48314
4.66695
2.19107
0.523958
64.4401
21.4068
17.4459
17.1556
18.0014
19.327
20.8177
22.141
23.1263
23.7827
24.1791
24.3542
38.457
16.4622
13.9152
13.8772
14.7522
16.0011
17.3612
18.5826
19.5327
20.2278
20.7329
21.1332
27.0133
12.6194
11.0083
11.1684
12.0195
13.1563
14.3685
15.4788
16.3817
17.1015
17.7039
18.2654
19.7497
9.74364
8.68669
8.94671
9.73917
10.7481
11.8108
12.8022
13.6457
14.3629
15.015
15.6605
14.6113
7.58336
6.84844
7.14202
7.85611
8.73504
9.65395
10.5232
11.295
11.9818
12.6331
13.2972
10.7579
5.93252
5.39843
5.68888
6.32047
7.07677
7.86129
8.61382
9.3027
9.93582
10.5523
11.1892
7.85563
4.67129
4.25483
4.52705
5.08704
5.73547
6.39964
7.04399
7.64783
8.21565
8.77739
9.36046
5.68145
3.67423
3.351
3.60496
4.11668
4.67891
5.24156
5.79104
6.31622
6.81828
7.31891
7.83836
3.98311
2.82157
2.62589
2.88884
3.3834
3.88747
4.37267
4.84667
5.30839
5.75527
6.20154
6.66232
2.6142
2.05779
2.04597
2.38629
2.91458
3.40183
3.84137
4.26481
4.68277
5.0913
5.50643
5.93072
1.54924
1.42128
1.67096
2.21832
2.84135
3.36759
3.8225
4.26507
4.71614
5.1592
5.61312
6.07014
1.14994
1.53611
2.68136
3.93554
4.92109
5.74074
6.52071
7.38734
8.36225
9.32957
10.2661
11.1951
24.5164
24.8073
25.073
25.2318
25.1912
24.8695
24.3691
23.7899
23.2465
22.8012
22.8563
26.2985
21.5514
21.9907
22.346
22.5096
22.3147
21.6361
20.5093
18.9213
16.7356
13.4911
7.99529
3.20412
18.8364
19.3654
19.7563
19.8912
19.5318
18.5238
16.8369
14.4218
11.1802
7.06363
3.05283
1.84449
16.3068
16.8761
17.2746
17.3733
16.8987
15.6892
13.6944
10.9395
7.57838
4.16244
1.9604
1.72321
13.9614
14.5363
14.9287
15.0014
14.4873
13.2362
11.2122
8.54779
5.60451
3.0984
1.71328
1.68628
11.8295
12.3861
12.7659
12.8293
12.3444
11.1862
9.3335
6.9927
4.59241
2.73241
1.68601
1.60976
9.95028
10.4728
10.8366
10.9036
10.4918
9.51342
7.9323
5.98519
4.07078
2.63046
1.73644
1.45523
8.36617
8.84631
9.19138
9.26636
8.94928
8.18466
6.89766
5.32434
3.79845
2.62516
1.80412
1.24617
7.13187
7.56969
7.89557
7.98406
7.7597
7.18879
6.17297
4.91579
3.68387
2.67585
1.85103
0.985006
6.36292
6.77446
7.09359
7.20017
7.05224
6.61595
5.80837
4.78931
3.72909
2.78753
1.86751
0.690622
6.53281
6.98078
7.34176
7.48415
7.37076
6.95052
6.23411
5.3133
4.22856
3.11504
1.85818
0.393575
12.1554
13.1341
13.9818
14.3281
14.0925
13.2625
11.8912
9.96747
7.48352
4.66704
2.19099
0.523915
64.4599
21.4136
17.4517
17.1614
18.0077
19.3335
20.8244
22.1475
23.1324
23.7886
24.1846
24.3589
38.4717
16.4684
13.9206
13.8826
14.7579
16.0071
17.3672
18.5884
19.5382
20.2329
20.7376
21.137
27.0248
12.6247
11.013
11.1732
12.0245
13.1615
14.3738
15.4839
16.3864
17.1059
17.7077
18.2685
19.7588
9.74804
8.69064
8.95076
9.74345
10.7525
11.8153
12.8066
13.6498
14.3666
15.0181
15.663
14.6183
7.58697
6.85171
7.14539
7.85967
8.73875
9.6577
10.5269
11.2983
11.9847
12.6357
13.2992
10.7632
5.93547
5.4011
5.69163
6.32338
7.07982
7.86437
8.6168
9.30544
9.93823
10.5544
11.1907
7.8596
4.6737
4.25699
4.52925
5.08939
5.73795
6.40214
7.0464
7.65005
8.21761
8.77898
9.36162
5.68439
3.67619
3.35273
3.60671
4.11856
4.6809
5.24358
5.793
6.31802
6.81986
7.32018
7.83925
3.98519
2.82311
2.62726
2.89022
3.38491
3.8891
4.37434
4.84829
5.30988
5.75657
6.20258
6.66302
2.61558
2.05893
2.04704
2.38739
2.91583
3.40323
3.84283
4.26623
4.68407
5.09243
5.50733
5.9313
1.55007
1.42205
1.67182
2.21932
2.84256
3.36899
3.82399
4.26654
4.71747
5.16037
5.61404
6.07074
1.15055
1.53685
2.68276
3.93737
4.92339
5.74343
6.52359
7.39013
8.36478
9.33188
10.2679
11.1964
24.5204
24.8106
25.0758
25.234
25.1923
24.8696
24.368
23.7875
23.2425
22.7958
22.8497
26.2924
21.5544
21.993
22.3477
22.5107
22.3147
21.6352
20.5074
18.9185
16.7321
13.4876
7.9935
3.20407
18.8387
19.3669
19.7572
19.8915
19.5311
18.5224
16.8348
14.4194
11.178
7.06228
3.05264
1.84465
16.3084
16.877
17.2749
17.373
16.8976
15.6875
13.6924
10.9376
7.57713
4.16201
1.96037
1.72335
13.9626
14.5368
14.9286
15.0008
14.486
13.2345
11.2105
8.54643
5.60376
3.09818
1.71322
1.6864
11.8304
12.3864
12.7656
12.8284
12.3431
11.1846
9.33199
6.99161
4.59184
2.73219
1.68593
1.6098
9.9509
10.4729
10.8362
10.9027
10.4905
9.51197
7.93096
5.98426
4.07025
2.6302
1.7363
1.45525
8.36661
8.8463
9.1909
9.26545
8.94808
8.18337
6.89645
5.3235
3.79793
2.62485
1.80395
1.24614
7.13219
7.56965
7.8951
7.98325
7.75862
7.18766
6.17186
4.91502
3.68333
2.67549
1.85082
0.984959
6.36317
6.77441
7.09318
7.19944
7.0513
6.61492
5.80736
4.78856
3.72853
2.78712
1.86727
0.690587
6.53308
6.98076
7.3414
7.48345
7.36979
6.94949
6.23309
5.31251
4.22792
3.11456
1.85793
0.393543
12.1562
13.1343
13.9814
14.3267
14.0907
13.2606
11.8894
9.96592
7.48234
4.66634
2.19068
0.523834
64.4369
21.4063
17.4461
17.1562
18.0025
19.3284
20.8193
22.1425
23.1277
23.7841
24.1806
24.3551
38.4553
16.4618
13.9154
13.8777
14.7532
16.0024
17.3626
18.584
19.5341
20.2292
20.7346
21.1335
27.012
12.619
11.0083
11.1688
12.0203
13.1574
14.3697
15.48
16.383
17.1029
17.7052
18.2656
19.7488
9.74325
8.68657
8.94685
9.73964
10.7488
11.8118
12.8033
13.6468
14.3641
15.016
15.6607
14.6106
7.58298
6.8482
7.14197
7.85632
8.73551
9.65463
10.524
11.2958
11.9826
12.6339
13.2975
10.7573
5.93216
5.39812
5.68866
6.32044
7.07696
7.86169
8.61435
9.3033
9.93641
10.5529
11.1894
7.85518
4.67098
4.25447
4.5267
5.0868
5.73542
6.39977
7.04427
7.64821
8.21605
8.77771
9.36049
5.68112
3.67398
3.35064
3.60451
4.11627
4.67864
5.24146
5.79111
6.31641
6.81851
7.31907
7.83825
3.98289
2.82137
2.62554
2.88833
3.38286
3.88702
4.37239
4.84656
5.30842
5.75536
6.20157
6.66206
2.61407
2.05765
2.04564
2.3857
2.9139
3.40123
3.84093
4.26456
4.68267
5.09129
5.50636
5.93034
1.54919
1.42114
1.6706
2.21763
2.84053
3.36683
3.82192
4.26471
4.71595
5.15912
5.61299
6.06951
1.14995
1.53595
2.68055
3.93425
4.9197
5.73957
6.51991
7.38688
8.362
9.32954
10.2659
11.1937
)
;

boundaryField
{
    rotor
    {
        Cmu             0.09;
        kappa           0.41;
        E               9.8;
        type            epsilonWallFunction;
        value           nonuniform List<scalar> 
192
(
3.59752
3.06746
3.58424
3.59758
3.32885
2.76573
2.82342
4.71379
22.0375
39.6351
47.751
52.7849
56.2279
57.9071
58.4505
58.1591
57.178
54.1745
50.1563
44.0759
36.9889
27.9614
18.5139
23.1306
3.59377
3.06525
3.58288
3.59669
3.32882
2.76586
2.82336
4.71074
22.0235
39.6313
47.7521
52.7866
56.2316
57.9115
58.4563
58.165
57.1847
54.1812
50.1631
44.082
36.9941
27.9655
18.5172
23.1356
3.59179
3.06292
3.57994
3.59334
3.32482
2.76259
2.82128
4.71725
22.0642
39.6545
47.7678
52.8033
56.2456
57.9247
58.4669
58.1751
57.1923
54.1876
50.167
44.085
36.9957
27.9659
18.5166
23.1342
3.59366
3.06497
3.58265
3.5964
3.32836
2.76554
2.8234
4.71364
22.0391
39.6419
47.7604
52.7955
56.2398
57.9196
58.4636
58.1721
57.191
54.1867
50.1675
44.0855
36.9965
27.967
18.518
23.1369
3.59752
7.20678
8.9345
12.9827
14.8919
15.7831
16.1396
16.493
17.6564
19.9938
24.8503
114.548
23.1369
75.1201
120.124
152.236
177.877
200.959
221.675
246.63
276.074
307.44
346.738
412.495
3.59377
7.20509
8.93356
12.9812
14.8901
15.781
16.1394
16.4944
17.66
19.9991
24.8562
114.552
23.1306
75.1036
120.102
152.208
177.846
200.925
221.637
246.589
276.028
307.391
346.685
412.438
3.59179
7.20123
8.92916
12.9798
14.8914
15.7846
16.141
16.4941
17.6565
19.9928
24.8499
114.565
23.1356
75.1166
120.119
152.228
177.868
200.949
221.663
246.618
276.06
307.427
346.724
412.483
3.59366
7.20515
8.93378
12.9819
14.8912
15.7822
16.1401
16.4945
17.6595
19.9984
24.8566
114.567
23.1342
75.1145
120.12
152.234
177.877
200.962
221.679
246.638
276.083
307.454
346.754
412.519
)
;
    }
    stator
    {
        Cmu             0.09;
        kappa           0.41;
        E               9.8;
        type            epsilonWallFunction;
        value           nonuniform List<scalar> 
192
(
12.1495
13.1279
13.9759
14.3221
14.0867
13.257
11.8864
9.96344
7.48057
4.66528
2.19022
0.523751
1.14973
1.53566
2.68
3.93359
4.91885
5.7384
6.51835
7.38493
8.35977
9.32713
10.2636
11.1926
12.153
13.1318
13.9798
14.326
14.0906
13.2608
11.89
9.96655
7.48314
4.66695
2.19107
0.523958
1.14994
1.53611
2.68136
3.93554
4.92109
5.74074
6.52071
7.38734
8.36225
9.32957
10.2661
11.1951
12.1554
13.1341
13.9818
14.3281
14.0925
13.2625
11.8912
9.96747
7.48352
4.66704
2.19099
0.523915
1.15055
1.53685
2.68276
3.93737
4.92339
5.74343
6.52359
7.39013
8.36478
9.33188
10.2679
11.1964
12.1562
13.1343
13.9814
14.3267
14.0907
13.2606
11.8894
9.96592
7.48234
4.66634
2.19068
0.523834
1.14995
1.53595
2.68055
3.93425
4.9197
5.73957
6.51991
7.38688
8.362
9.32954
10.2659
11.1937
64.4295
38.4503
27.0081
19.7458
14.6082
10.7555
7.85381
5.68011
3.98215
2.61357
1.54888
1.14973
26.2896
3.20289
1.84377
1.72254
1.68564
1.60915
1.45469
1.24571
0.984639
0.69038
0.39344
0.523751
64.4401
38.457
27.0133
19.7497
14.6113
10.7579
7.85563
5.68145
3.98311
2.6142
1.54924
1.14994
26.2945
3.20415
1.84469
1.72341
1.68648
1.60993
1.45538
1.24629
0.985095
0.690701
0.393621
0.523958
64.4599
38.4717
27.0248
19.7588
14.6183
10.7632
7.8596
5.68439
3.98519
2.61558
1.55007
1.15055
26.2985
3.20412
1.84449
1.72321
1.68628
1.60976
1.45523
1.24617
0.985006
0.690622
0.393575
0.523915
64.4369
38.4553
27.012
19.7488
14.6106
10.7573
7.85518
5.68112
3.98289
2.61407
1.54919
1.14995
26.2924
3.20407
1.84465
1.72335
1.6864
1.6098
1.45525
1.24614
0.984959
0.690587
0.393543
0.523834
)
;
    }
    front
    {
        type            empty;
    }
    back
    {
        type            empty;
    }
}


// ************************************************************************* //
