/*--------------------------------*- C++ -*----------------------------------*\
| =========                 |                                                 |
| \\      /  F ield         | OpenFOAM: The Open Source CFD Toolbox           |
|  \\    /   O peration     | Version:  4.0                                   |
|   \\  /    A nd           | Web:      www.OpenFOAM.org                      |
|    \\/     M anipulation  |                                                 |
\*---------------------------------------------------------------------------*/
FoamFile
{
    version     2.0;
    format      ascii;
    class       volScalarField;
    location    "450";
    object      k;
}
// * * * * * * * * * * * * * * * * * * * * * * * * * * * * * * * * * * * * * //

dimensions      [0 2 -2 0 0 0 0];

internalField   nonuniform List<scalar> 
3072
(
0.0339102
0.0456461
0.0506337
0.050762
0.0482107
0.042605
0.0431775
0.0606423
0.169509
0.251094
0.284396
0.30406
0.058019
0.106915
0.109438
0.105503
0.0890559
0.0952299
0.172383
0.198584
0.263646
0.340895
0.405044
0.473123
0.0715645
0.128795
0.168339
0.196886
0.206211
0.197983
0.235993
0.311286
0.402407
0.488612
0.564846
0.631439
0.0975389
0.188705
0.21936
0.222177
0.222086
0.250849
0.337784
0.432567
0.521917
0.599706
0.667495
0.724906
0.112984
0.220756
0.241959
0.241586
0.266044
0.344831
0.44062
0.532389
0.613217
0.681585
0.740352
0.790354
0.123628
0.241969
0.268942
0.285487
0.346368
0.437093
0.530078
0.61417
0.685453
0.745117
0.796234
0.840065
0.131622
0.259883
0.300805
0.351778
0.436142
0.530668
0.618616
0.694422
0.757212
0.808901
0.852586
0.889989
0.139633
0.285543
0.356525
0.449687
0.555166
0.652317
0.733729
0.79919
0.850806
0.891664
0.925105
0.95331
0.152374
0.329758
0.463681
0.605498
0.73242
0.830584
0.901507
0.951282
0.985642
1.00952
1.02699
1.0407
0.172176
0.408336
0.652774
0.850739
0.992308
1.08236
1.13386
1.15956
1.16853
1.16776
1.16224
1.15508
0.206535
0.559548
0.95846
1.20183
1.33079
1.39106
1.40944
1.40238
1.37927
1.34868
1.31586
1.2839
0.592354
0.963185
1.38099
1.57346
1.64511
1.6575
1.64393
1.60645
1.55801
1.50386
1.44895
1.3961
0.317174
0.323469
0.325511
0.324431
0.320784
0.309455
0.293969
0.269704
0.239968
0.199132
0.151278
0.117248
0.534016
0.583123
0.618235
0.633688
0.632449
0.623407
0.608621
0.583798
0.538637
0.44435
0.326649
0.276842
0.684326
0.72214
0.744503
0.753566
0.754301
0.75149
0.745265
0.733681
0.707148
0.642784
0.488046
0.404665
0.770249
0.804209
0.827574
0.842165
0.851052
0.85766
0.864395
0.870319
0.867116
0.833412
0.6967
0.503493
0.83076
0.862248
0.885708
0.902964
0.916986
0.931341
0.949222
0.971072
0.986348
0.97787
0.874213
0.590449
0.876521
0.906185
0.930008
0.949805
0.96856
0.990196
1.01861
1.05527
1.09481
1.11355
1.05604
0.674177
0.921708
0.94848
0.971344
0.99212
1.01382
1.04074
1.07765
1.12754
1.18666
1.23231
1.21626
0.754844
0.977446
0.998485
1.01758
1.03648
1.05809
1.08705
1.12935
1.19018
1.26824
1.34014
1.35554
0.847314
1.05235
1.06316
1.07448
1.08783
1.10563
1.13266
1.17615
1.24447
1.34048
1.44024
1.47522
0.952343
1.14845
1.14392
1.14337
1.14779
1.1584
1.17977
1.21984
1.2908
1.40217
1.53473
1.60556
1.06411
1.25544
1.2325
1.21653
1.20999
1.21483
1.22932
1.26255
1.32902
1.44802
1.61683
1.75533
1.19648
1.34874
1.3101
1.28151
1.265
1.2656
1.27623
1.30329
1.36072
1.47088
1.66089
1.90324
1.39136
0.0338874
0.0456243
0.0506211
0.050754
0.0482106
0.0426065
0.043177
0.0606163
0.169436
0.251078
0.2844
0.304067
0.0580101
0.1069
0.109441
0.105518
0.0890909
0.0952274
0.172369
0.198573
0.263601
0.340876
0.405019
0.473106
0.0715591
0.128781
0.168327
0.196905
0.206271
0.198018
0.235944
0.311239
0.402356
0.488576
0.564815
0.63142
0.0975308
0.188699
0.219376
0.222204
0.222108
0.250798
0.337713
0.432508
0.52187
0.59967
0.667469
0.72489
0.112974
0.22075
0.241962
0.241585
0.265995
0.344759
0.440555
0.532339
0.613178
0.681558
0.740331
0.790341
0.123617
0.241957
0.268924
0.285447
0.346311
0.437037
0.530033
0.614135
0.685428
0.745097
0.79622
0.840055
0.131621
0.259879
0.300792
0.351752
0.436113
0.530644
0.618597
0.694409
0.757201
0.808892
0.852578
0.889984
0.139641
0.285568
0.356545
0.449707
0.555188
0.65234
0.733749
0.799206
0.850817
0.891671
0.925109
0.953314
0.152395
0.329814
0.463747
0.605574
0.732502
0.830662
0.901575
0.951337
0.985683
1.00955
1.02701
1.04071
0.172207
0.408413
0.652871
0.850857
0.992438
1.08249
1.13398
1.15965
1.1686
1.16781
1.16228
1.15511
0.206568
0.55962
0.958559
1.20196
1.33094
1.3912
1.40958
1.40249
1.37937
1.34876
1.31592
1.28394
0.592368
0.963224
1.38105
1.57354
1.64522
1.65762
1.64406
1.60657
1.55812
1.50395
1.44903
1.39616
0.317188
0.323485
0.325532
0.324453
0.32081
0.309481
0.293996
0.269729
0.23999
0.199152
0.151296
0.117264
0.534008
0.583125
0.61825
0.633717
0.632486
0.62345
0.608668
0.583847
0.538687
0.444391
0.326682
0.276873
0.684317
0.722144
0.744519
0.753593
0.754337
0.751535
0.745316
0.733737
0.707206
0.642842
0.488091
0.404701
0.770243
0.804213
0.827588
0.842189
0.851085
0.857703
0.864446
0.870377
0.867179
0.833478
0.69676
0.503537
0.830755
0.862251
0.885719
0.902985
0.917017
0.931382
0.949272
0.971132
0.986416
0.977945
0.874285
0.590499
0.876517
0.906188
0.930018
0.949824
0.968588
0.990235
1.01866
1.05533
1.09488
1.11363
1.05612
0.674232
0.921707
0.948484
0.971355
0.992139
1.01385
1.04077
1.0777
1.1276
1.18673
1.2324
1.21635
0.754904
0.977451
0.998492
1.01759
1.0365
1.05812
1.08709
1.1294
1.19025
1.26832
1.34023
1.35564
0.84738
1.05236
1.06318
1.0745
1.08785
1.10566
1.1327
1.1762
1.24453
1.34056
1.44033
1.47532
0.952416
1.14847
1.14395
1.14339
1.14781
1.15843
1.17981
1.21989
1.29086
1.40225
1.53484
1.60567
1.06419
1.25547
1.23253
1.21656
1.21003
1.21487
1.22936
1.2626
1.32909
1.44811
1.61694
1.75545
1.19657
1.3488
1.31014
1.28155
1.26505
1.26565
1.27628
1.30336
1.3608
1.47097
1.661
1.90337
1.39146
0.033875
0.0456011
0.0505933
0.0507224
0.0481721
0.0425731
0.0431558
0.0606707
0.169642
0.251175
0.284462
0.30413
0.0579897
0.106861
0.109382
0.105439
0.0889765
0.0951992
0.172406
0.198645
0.263772
0.341009
0.405194
0.473278
0.071536
0.128751
0.168298
0.196833
0.206124
0.197947
0.236127
0.311426
0.40258
0.488789
0.565037
0.631634
0.0975241
0.188674
0.21932
0.222145
0.222072
0.250967
0.337956
0.432739
0.522102
0.599897
0.667696
0.725113
0.112981
0.220751
0.241958
0.241602
0.266151
0.344985
0.440787
0.532562
0.613398
0.681775
0.740554
0.790565
0.123636
0.241992
0.268981
0.285573
0.346494
0.437236
0.530231
0.614333
0.685627
0.745303
0.796436
0.840278
0.131629
0.259912
0.300861
0.351871
0.436256
0.530795
0.618757
0.694577
0.75738
0.809085
0.852785
0.890202
0.139639
0.285559
0.356571
0.449759
0.555257
0.652426
0.733856
0.799335
0.850967
0.891842
0.925298
0.953519
0.152375
0.329757
0.463708
0.605544
0.732486
0.83067
0.901614
0.95141
0.985789
1.00969
1.02717
1.04089
0.172171
0.408329
0.652795
0.850775
0.992359
1.08243
1.13395
1.15967
1.16866
1.1679
1.1624
1.15525
0.206534
0.559565
0.958503
1.20188
1.33085
1.39113
1.40952
1.40247
1.37938
1.3488
1.31599
1.28404
0.592412
0.963273
1.38108
1.57354
1.64519
1.65758
1.64402
1.60654
1.55811
1.50396
1.44906
1.39621
0.31724
0.323534
0.325571
0.32449
0.320838
0.309505
0.294011
0.269741
0.239997
0.199154
0.151293
0.11726
0.534178
0.583284
0.618387
0.633829
0.632579
0.623529
0.608732
0.583898
0.538721
0.444411
0.326685
0.276868
0.684523
0.722333
0.744689
0.753744
0.754469
0.751646
0.745412
0.733817
0.707271
0.64289
0.488112
0.404703
0.770458
0.804419
0.827781
0.842367
0.851248
0.857849
0.864575
0.870486
0.867271
0.833548
0.696804
0.503549
0.830978
0.86247
0.885931
0.903187
0.917207
0.931557
0.949431
0.971271
0.986537
0.978039
0.874346
0.590518
0.876744
0.906417
0.930244
0.950043
0.968798
0.990433
1.01884
1.05549
1.09503
1.11374
1.0562
0.674261
0.921933
0.948715
0.971586
0.992367
1.01407
1.04099
1.0779
1.12778
1.1869
1.23253
1.21645
0.75494
0.977667
0.998716
1.01782
1.03672
1.05834
1.08731
1.12961
1.19045
1.2685
1.34038
1.35575
0.847425
1.05255
1.06338
1.07471
1.08807
1.10588
1.13292
1.17642
1.24474
1.34075
1.4405
1.47545
0.952469
1.14863
1.14412
1.14357
1.14801
1.15862
1.18001
1.22009
1.29107
1.40245
1.53502
1.6058
1.06425
1.25559
1.23266
1.21671
1.21019
1.21503
1.22953
1.26278
1.32928
1.44831
1.61713
1.75559
1.19663
1.34887
1.31023
1.28165
1.26516
1.26578
1.27641
1.3035
1.36096
1.47115
1.66119
1.90351
1.39154
0.0338867
0.0456215
0.0506189
0.0507512
0.0482062
0.0426032
0.0431773
0.0606408
0.169516
0.251123
0.284433
0.304101
0.0580104
0.1069
0.109438
0.105511
0.0890748
0.095237
0.172399
0.198604
0.263669
0.340934
0.405093
0.473183
0.0715604
0.128787
0.168341
0.196912
0.206259
0.198022
0.236006
0.31131
0.402441
0.488662
0.564907
0.631511
0.0975348
0.188709
0.219384
0.222212
0.22212
0.250856
0.337793
0.432592
0.521959
0.59976
0.667562
0.724983
0.11298
0.220764
0.24198
0.241607
0.266045
0.344828
0.440632
0.53242
0.613263
0.681645
0.740422
0.790434
0.123623
0.241975
0.268949
0.285485
0.346361
0.437097
0.5301
0.614207
0.685504
0.745178
0.796306
0.840145
0.131624
0.259891
0.300812
0.35178
0.436149
0.530689
0.618649
0.694468
0.757267
0.808966
0.852659
0.890071
0.139641
0.285568
0.356551
0.44972
0.555208
0.652368
0.733786
0.799252
0.850872
0.891736
0.925182
0.953394
0.152392
0.329806
0.463746
0.605579
0.732511
0.830677
0.901597
0.951369
0.985726
1.00961
1.02707
1.04079
0.172203
0.408411
0.65288
0.850868
0.992447
1.0825
1.13399
1.15967
1.16863
1.16785
1.16234
1.15517
0.20657
0.559646
0.958596
1.20199
1.33096
1.39122
1.40959
1.40251
1.3794
1.34879
1.31597
1.284
0.592421
0.963314
1.38114
1.57362
1.64528
1.65768
1.6441
1.6066
1.55815
1.50399
1.44907
1.39621
0.317219
0.323515
0.325559
0.324479
0.320833
0.309502
0.294013
0.269743
0.24
0.199159
0.1513
0.117269
0.534086
0.583202
0.618321
0.63378
0.632542
0.623501
0.608713
0.583886
0.53872
0.444414
0.326695
0.276882
0.684407
0.72223
0.7446
0.753668
0.754407
0.751597
0.745372
0.733788
0.70725
0.642879
0.488112
0.404712
0.770335
0.804304
0.827676
0.842273
0.851164
0.857777
0.864514
0.870438
0.867233
0.833523
0.696794
0.503553
0.830849
0.862345
0.885812
0.903076
0.917104
0.931465
0.94935
0.971203
0.986481
0.978
0.874326
0.590517
0.876611
0.906284
0.930115
0.949919
0.968682
0.990326
1.01875
1.05541
1.09496
1.11369
1.05617
0.674255
0.921798
0.948579
0.971452
0.992237
1.01395
1.04087
1.0778
1.12769
1.18682
1.23247
1.21641
0.754929
0.977538
0.998584
1.01769
1.03659
1.05822
1.08719
1.1295
1.19035
1.26841
1.34031
1.3557
0.847409
1.05244
1.06326
1.07459
1.08795
1.10576
1.1328
1.1763
1.24464
1.34066
1.44042
1.47539
0.952447
1.14854
1.14403
1.14347
1.1479
1.15852
1.17991
1.21999
1.29097
1.40235
1.53493
1.60574
1.06422
1.25554
1.2326
1.21664
1.21011
1.21496
1.22945
1.2627
1.32919
1.44821
1.61703
1.75552
1.1966
1.34885
1.31021
1.28162
1.26513
1.26573
1.27637
1.30344
1.36088
1.47106
1.66108
1.90343
1.39148
1.71774
1.71394
1.72927
1.74479
1.75245
1.74449
1.72233
1.68261
1.63274
1.57479
1.51421
1.4538
1.7352
1.68955
1.66925
1.66187
1.65996
1.65369
1.64053
1.61898
1.58617
1.54068
1.49089
1.43831
1.64347
1.6044
1.57049
1.54416
1.52391
1.50658
1.49043
1.47345
1.4537
1.42907
1.39918
1.36497
1.51205
1.48214
1.44537
1.40765
1.37614
1.34979
1.32774
1.31012
1.29671
1.28584
1.27709
1.27158
1.39867
1.35437
1.32207
1.30372
1.304
1.31367
1.33759
1.38616
1.47433
1.64057
1.9215
1.84225
1.39032
1.35495
1.33161
1.32184
1.32525
1.33684
1.35987
1.39968
1.46405
1.56961
1.79271
1.79475
1.33779
1.32459
1.31969
1.3217
1.32962
1.34393
1.36433
1.39349
1.43846
1.49724
1.63605
1.67034
1.27592
1.28817
1.295
1.30262
1.31114
1.32273
1.33939
1.36134
1.39463
1.42818
1.50532
1.53159
1.7177
1.71394
1.72928
1.74483
1.75253
1.74458
1.72244
1.68273
1.63286
1.5749
1.5143
1.45388
1.73517
1.68956
1.66927
1.66193
1.66004
1.65378
1.64063
1.61909
1.58629
1.5408
1.491
1.4384
1.64344
1.60443
1.57054
1.54422
1.52398
1.50667
1.49053
1.47356
1.45382
1.42919
1.3993
1.36508
1.51201
1.48216
1.44544
1.40773
1.37623
1.34988
1.32784
1.31023
1.29683
1.28596
1.27721
1.27169
1.39874
1.35444
1.32213
1.30378
1.30406
1.31374
1.33766
1.38624
1.47442
1.64068
1.92163
1.84237
1.39041
1.35503
1.33168
1.32192
1.32533
1.33692
1.35995
1.39977
1.46415
1.56972
1.79283
1.79486
1.33789
1.32469
1.31978
1.32179
1.32971
1.34402
1.36442
1.39358
1.43855
1.49735
1.63616
1.67045
1.27603
1.28827
1.2951
1.30272
1.31124
1.32282
1.33948
1.36144
1.39472
1.42827
1.50542
1.53169
1.71782
1.71405
1.72938
1.7449
1.75255
1.74459
1.72243
1.68271
1.63285
1.57489
1.51431
1.4539
1.73528
1.68967
1.66937
1.662
1.66009
1.65382
1.64065
1.6191
1.58628
1.54079
1.49099
1.4384
1.64354
1.60453
1.57063
1.5443
1.52405
1.50672
1.49056
1.47358
1.45382
1.42918
1.39929
1.36507
1.5121
1.48225
1.44552
1.4078
1.37629
1.34993
1.32788
1.31026
1.29684
1.28596
1.2772
1.27168
1.39877
1.35448
1.32219
1.30386
1.30415
1.31383
1.33777
1.38637
1.47457
1.64085
1.92177
1.84248
1.39041
1.35505
1.33171
1.32196
1.32539
1.33699
1.36004
1.39987
1.46427
1.56987
1.79298
1.79499
1.33789
1.32469
1.3198
1.32182
1.32976
1.34408
1.36449
1.39367
1.43866
1.49748
1.63632
1.6706
1.27603
1.28828
1.29513
1.30276
1.31129
1.32289
1.33957
1.36155
1.39485
1.42842
1.50559
1.53185
1.71788
1.71409
1.72943
1.74496
1.75264
1.74468
1.72252
1.6828
1.63292
1.57495
1.51435
1.45393
1.73539
1.68976
1.66946
1.6621
1.66019
1.65392
1.64076
1.61921
1.58638
1.54087
1.49107
1.43847
1.64368
1.60466
1.57075
1.54442
1.52417
1.50684
1.49068
1.4737
1.45394
1.4293
1.39939
1.36517
1.51226
1.4824
1.44566
1.40794
1.37642
1.35006
1.328
1.31038
1.29696
1.28607
1.27731
1.27178
1.3988
1.3545
1.3222
1.30385
1.30414
1.31382
1.33774
1.38631
1.47449
1.64074
1.92166
1.8424
1.39048
1.3551
1.33176
1.32199
1.3254
1.33699
1.36001
1.39982
1.46419
1.56976
1.79285
1.79488
1.33797
1.32477
1.31985
1.32185
1.32977
1.34406
1.36445
1.39361
1.43857
1.49737
1.63617
1.67046
1.2761
1.28834
1.29515
1.30276
1.31126
1.32284
1.33949
1.36145
1.39473
1.42828
1.50543
1.53171
1.35039
1.31083
1.27132
1.23553
1.2072
1.18523
1.16941
1.16015
1.15773
1.16168
1.17503
1.19863
1.22135
1.18361
1.14832
1.11742
1.09247
1.07289
1.05921
1.05203
1.05156
1.05654
1.07023
1.09355
1.12029
1.08952
1.0605
1.0338
1.00972
0.988159
0.970062
0.956104
0.946137
0.939659
0.9398
0.952138
1.03785
1.0154
0.992565
0.968608
0.94288
0.915373
0.886974
0.858236
0.828627
0.797453
0.768721
0.762225
1.22472
1.23743
1.23652
1.24287
1.25477
1.27356
1.29832
1.32621
1.35607
1.38263
1.40644
1.39361
1.12173
1.13532
1.12852
1.13668
1.15633
1.18488
1.21838
1.25099
1.27622
1.29169
1.2953
1.26682
0.990544
1.01931
1.01407
1.02554
1.05198
1.08741
1.12642
1.1592
1.18082
1.19173
1.1874
1.15814
0.813042
0.893381
0.900424
0.917342
0.948845
0.988194
1.02943
1.0616
1.08211
1.09196
1.08757
1.065
1.35042
1.3109
1.27142
1.23563
1.2073
1.18533
1.16952
1.16026
1.15784
1.16179
1.17514
1.19874
1.22141
1.1837
1.14843
1.11754
1.09258
1.073
1.05932
1.05214
1.05166
1.05664
1.07032
1.09365
1.12038
1.08962
1.06061
1.03392
1.00984
0.98827
0.970166
0.9562
0.946227
0.939746
0.939886
0.952226
1.03794
1.01551
0.992677
0.968723
0.942993
0.915481
0.887074
0.858328
0.828711
0.79753
0.768793
0.762296
1.22482
1.23754
1.23662
1.24296
1.25486
1.27365
1.29841
1.3263
1.35616
1.38272
1.40653
1.39369
1.12183
1.13542
1.12861
1.13678
1.15643
1.18497
1.21847
1.25108
1.27631
1.29178
1.29538
1.26689
0.990638
1.01941
1.01416
1.02564
1.05207
1.0875
1.12651
1.15929
1.18091
1.19181
1.18748
1.15821
0.813124
0.893474
0.900522
0.91744
0.948941
0.988287
1.02952
1.06168
1.08219
1.09203
1.08764
1.06506
1.35049
1.31096
1.27147
1.23567
1.20734
1.18536
1.16954
1.16027
1.15784
1.16179
1.17514
1.19876
1.22148
1.18375
1.14847
1.11757
1.09261
1.07302
1.05933
1.05214
1.05166
1.05666
1.07035
1.0937
1.12043
1.08966
1.06064
1.03394
1.00985
0.98828
0.970175
0.956211
0.946246
0.93978
0.939932
0.952299
1.038
1.01555
0.99271
0.968745
0.943008
0.915492
0.887086
0.858346
0.82874
0.797575
0.768854
0.762377
1.22487
1.23759
1.23669
1.24306
1.25498
1.27378
1.29856
1.32645
1.35632
1.38289
1.4067
1.39386
1.12191
1.13552
1.12874
1.13692
1.15659
1.18514
1.21865
1.25126
1.27649
1.29197
1.29556
1.26706
0.990754
1.01954
1.01432
1.02581
1.05226
1.0877
1.1267
1.15949
1.1811
1.192
1.18766
1.15837
0.813255
0.893633
0.900701
0.917632
0.949143
0.988494
1.02972
1.06188
1.08238
1.09222
1.08781
1.06521
1.35066
1.31111
1.27161
1.23581
1.20747
1.18548
1.16965
1.16037
1.15793
1.16186
1.17519
1.19878
1.22163
1.1839
1.1486
1.11769
1.09272
1.07312
1.05941
1.05221
1.05172
1.05668
1.07034
1.09365
1.12058
1.08979
1.06076
1.03405
1.00994
0.988356
0.970231
0.956246
0.946258
0.939776
0.939886
0.952202
1.03813
1.01566
0.992807
0.968828
0.943075
0.915541
0.887113
0.858347
0.828713
0.797523
0.768767
0.762265
1.22485
1.23755
1.23662
1.24297
1.25487
1.27366
1.29842
1.3263
1.35616
1.38274
1.40655
1.39372
1.12182
1.13541
1.1286
1.13677
1.15643
1.18498
1.21848
1.25109
1.27632
1.2918
1.29541
1.26692
0.990611
1.01938
1.01415
1.02563
1.05207
1.08751
1.12652
1.1593
1.18092
1.19183
1.18751
1.15823
0.813096
0.893444
0.900501
0.917428
0.94894
0.988296
1.02953
1.0617
1.08221
1.09206
1.08767
1.06508
0.965329
0.950947
0.933627
0.911366
0.882546
0.846641
0.803738
0.753337
0.692245
0.611034
0.479475
0.286116
0.896567
0.889363
0.8769
0.855962
0.823933
0.779294
0.720914
0.647098
0.552943
0.42677
0.234607
0.0719436
0.82803
0.826905
0.818795
0.799385
0.765232
0.713785
0.643032
0.551452
0.436812
0.298845
0.146087
0.0509003
0.758366
0.762014
0.757939
0.740619
0.706192
0.651439
0.574211
0.474774
0.356505
0.232345
0.125884
0.0497008
0.687665
0.694899
0.694323
0.679723
0.647068
0.592927
0.515546
0.417555
0.307231
0.202447
0.122033
0.05002
0.61652
0.626361
0.628606
0.617197
0.588049
0.53791
0.465394
0.374984
0.277256
0.188727
0.121114
0.0494847
0.545693
0.557246
0.561715
0.553549
0.529042
0.485345
0.420828
0.340983
0.256432
0.180402
0.119544
0.0471815
0.475624
0.488104
0.49419
0.488906
0.469618
0.433716
0.378728
0.310301
0.23794
0.171703
0.114764
0.0433653
0.405976
0.418591
0.425716
0.42289
0.408407
0.3805
0.336036
0.278697
0.217167
0.15907
0.104834
0.0377656
0.334201
0.346183
0.353755
0.3528
0.342295
0.321637
0.288305
0.241796
0.189918
0.139223
0.0877398
0.0303482
0.250668
0.260952
0.26814
0.268443
0.261524
0.246616
0.224459
0.191724
0.148872
0.106417
0.0598822
0.0212299
0.112552
0.118511
0.123557
0.125586
0.124206
0.119279
0.110909
0.0985989
0.0814491
0.0594533
0.0359128
0.0138358
0.520178
0.754259
0.787368
0.813404
0.848794
0.890105
0.931676
0.96373
0.984522
0.995562
0.995132
0.981764
0.377333
0.624879
0.679327
0.714662
0.752919
0.794829
0.835888
0.868061
0.890072
0.903329
0.90774
0.903561
0.304885
0.5198
0.581573
0.622451
0.662322
0.703787
0.743687
0.775875
0.799357
0.815014
0.824014
0.827293
0.252824
0.433481
0.495028
0.537753
0.577867
0.618001
0.65615
0.687938
0.712469
0.730359
0.743104
0.751932
0.211171
0.361198
0.418744
0.460901
0.500007
0.538072
0.573954
0.604764
0.629621
0.649122
0.664615
0.677226
0.175704
0.298941
0.351349
0.391617
0.428808
0.464234
0.497414
0.526669
0.551155
0.57137
0.588506
0.603546
0.145305
0.243367
0.291302
0.329189
0.363965
0.396341
0.426486
0.453688
0.477207
0.49734
0.515077
0.531261
0.11933
0.192526
0.237098
0.272652
0.304753
0.333809
0.360678
0.385437
0.407516
0.426929
0.444409
0.460701
0.0959351
0.146175
0.187414
0.220777
0.249897
0.275398
0.298786
0.320803
0.341067
0.359262
0.375811
0.391398
0.0737712
0.104456
0.141015
0.171573
0.19682
0.218283
0.23789
0.256899
0.275059
0.291636
0.306631
0.320776
0.05297
0.0678943
0.0956703
0.120117
0.13909
0.155167
0.170093
0.185432
0.200976
0.215356
0.227805
0.239479
0.0233855
0.0283633
0.041127
0.0531117
0.0616423
0.0683052
0.0743519
0.0807918
0.0877438
0.0943812
0.100591
0.106566
0.965418
0.951046
0.933736
0.911478
0.882657
0.846747
0.803837
0.753427
0.692325
0.611105
0.47953
0.286151
0.896655
0.889457
0.877003
0.856069
0.824041
0.779399
0.721012
0.647188
0.553024
0.426838
0.234656
0.0719624
0.828113
0.826994
0.818892
0.799487
0.765335
0.713887
0.64313
0.551543
0.436892
0.298912
0.146131
0.0509172
0.758446
0.762098
0.758029
0.740715
0.706291
0.651538
0.574307
0.474863
0.356582
0.232406
0.125924
0.0497175
0.687745
0.694979
0.694409
0.679813
0.647162
0.593022
0.515638
0.417639
0.307303
0.202502
0.122071
0.0500365
0.616599
0.626438
0.628687
0.617282
0.588137
0.538
0.465481
0.375063
0.277322
0.188777
0.12115
0.0495005
0.54577
0.55732
0.561792
0.553629
0.529125
0.485429
0.420909
0.341057
0.256493
0.180449
0.119578
0.0471964
0.475699
0.488175
0.494263
0.488981
0.469695
0.433794
0.378803
0.310368
0.237996
0.171746
0.114797
0.0433788
0.406046
0.418658
0.425784
0.422959
0.408477
0.38057
0.336104
0.278759
0.217218
0.159109
0.104863
0.0377772
0.334263
0.346244
0.353816
0.352861
0.342357
0.321699
0.288364
0.241849
0.189963
0.139258
0.0877649
0.0303575
0.250716
0.261001
0.26819
0.268493
0.261574
0.246665
0.224507
0.191767
0.148909
0.106445
0.0599002
0.0212363
0.112573
0.118534
0.123579
0.125609
0.124229
0.119302
0.110931
0.0986193
0.0814676
0.0594674
0.0359221
0.0138394
0.520234
0.754347
0.787464
0.813502
0.848891
0.8902
0.931766
0.963816
0.984604
0.99564
0.995202
0.981827
0.377377
0.624962
0.679421
0.71476
0.753017
0.794923
0.835978
0.868146
0.890152
0.903404
0.907809
0.903624
0.304923
0.519878
0.581664
0.622547
0.662418
0.703881
0.743777
0.77596
0.799435
0.815088
0.824082
0.827355
0.252857
0.433553
0.495115
0.537847
0.577962
0.618093
0.656239
0.688021
0.712546
0.730431
0.743171
0.751993
0.211201
0.361264
0.418825
0.460991
0.500099
0.538163
0.574041
0.604845
0.629696
0.649192
0.66468
0.677286
0.17573
0.299
0.351425
0.391702
0.428895
0.46432
0.497497
0.526748
0.551229
0.571438
0.588569
0.603605
0.145327
0.243419
0.29137
0.329267
0.364047
0.396423
0.426565
0.453763
0.477277
0.497405
0.515138
0.531318
0.119349
0.192571
0.237158
0.272723
0.304829
0.333884
0.360751
0.385507
0.407581
0.42699
0.444466
0.460755
0.0959502
0.146211
0.187466
0.220839
0.249964
0.275465
0.298853
0.320866
0.341127
0.359318
0.375864
0.391448
0.0737828
0.104483
0.141058
0.171625
0.196877
0.21834
0.237946
0.256953
0.275111
0.291685
0.306677
0.320821
0.0529781
0.0679118
0.0957025
0.120156
0.139132
0.155209
0.170134
0.185473
0.201017
0.215395
0.227841
0.239515
0.0233883
0.0283687
0.0411407
0.0531289
0.0616607
0.0683234
0.0743696
0.0808091
0.0877609
0.0943975
0.100607
0.106582
0.965473
0.951091
0.93377
0.911503
0.882674
0.846762
0.803853
0.753448
0.692355
0.611145
0.479573
0.286179
0.89671
0.889504
0.87704
0.856098
0.824063
0.779417
0.721029
0.647207
0.553046
0.42686
0.234665
0.0719618
0.828169
0.827042
0.818933
0.79952
0.765362
0.713908
0.643147
0.551557
0.436903
0.298916
0.146126
0.0509134
0.758502
0.762148
0.758074
0.740752
0.706322
0.651562
0.574324
0.474874
0.356587
0.232404
0.125917
0.0497135
0.687801
0.695031
0.694455
0.679854
0.647196
0.593049
0.515657
0.417649
0.307305
0.202499
0.122065
0.0500325
0.616654
0.62649
0.628734
0.617324
0.588174
0.538028
0.465501
0.375074
0.277325
0.188775
0.121145
0.0494971
0.545823
0.55737
0.561839
0.553671
0.529163
0.485458
0.420931
0.341068
0.256498
0.180449
0.119573
0.0471931
0.475749
0.488223
0.494308
0.489022
0.469733
0.433823
0.378825
0.310381
0.238003
0.171747
0.114792
0.043376
0.406094
0.418702
0.425826
0.422997
0.408514
0.380598
0.336126
0.278771
0.217225
0.159112
0.104859
0.0377749
0.334306
0.346283
0.353853
0.352895
0.34239
0.321725
0.288385
0.241862
0.189969
0.13926
0.0877621
0.0303552
0.25075
0.261033
0.268219
0.268519
0.261599
0.246686
0.224524
0.191778
0.148914
0.106446
0.059898
0.0212347
0.112588
0.118548
0.123591
0.125621
0.124239
0.119312
0.110939
0.0986253
0.0814704
0.0594682
0.0359212
0.0138386
0.52034
0.754516
0.787649
0.813698
0.849094
0.890407
0.931968
0.964009
0.984788
0.995812
0.995356
0.98196
0.377473
0.625124
0.6796
0.714948
0.753212
0.795122
0.836171
0.868328
0.890322
0.903562
0.907949
0.903741
0.305009
0.520026
0.581829
0.622723
0.662601
0.704065
0.743957
0.776128
0.799589
0.815228
0.824205
0.827456
0.252934
0.433684
0.495263
0.538006
0.578127
0.618261
0.656403
0.688174
0.712685
0.730554
0.743277
0.752079
0.211268
0.361377
0.418956
0.461131
0.500245
0.538311
0.574187
0.604981
0.629819
0.6493
0.66477
0.677356
0.175787
0.299098
0.351537
0.391823
0.429022
0.46445
0.497625
0.526866
0.551336
0.571531
0.588645
0.603662
0.145376
0.2435
0.291465
0.32937
0.364156
0.396534
0.426674
0.453864
0.477368
0.497485
0.515202
0.531365
0.11939
0.192636
0.237236
0.272808
0.304919
0.333978
0.360843
0.385593
0.407658
0.427056
0.444518
0.460792
0.0959836
0.146261
0.187527
0.220907
0.250037
0.275542
0.298929
0.320937
0.34119
0.359372
0.375906
0.391477
0.0738088
0.104519
0.141105
0.171677
0.196935
0.218402
0.238007
0.257009
0.275161
0.291727
0.30671
0.320843
0.0529969
0.0679355
0.0957342
0.120193
0.139174
0.155254
0.17018
0.185515
0.201053
0.215425
0.227865
0.23953
0.0233966
0.0283778
0.041155
0.0531455
0.0616801
0.0683449
0.0743915
0.0808295
0.0877787
0.0944131
0.100619
0.10659
0.965585
0.951184
0.933846
0.911563
0.882718
0.846787
0.803857
0.753428
0.692311
0.611082
0.479505
0.286136
0.896806
0.889578
0.877096
0.856136
0.824085
0.779423
0.721018
0.64718
0.553007
0.42682
0.234652
0.0719611
0.82825
0.827101
0.81897
0.799539
0.765366
0.7139
0.643128
0.551531
0.436879
0.298903
0.146133
0.0509165
0.758568
0.762193
0.758095
0.740755
0.706312
0.651542
0.5743
0.474852
0.356573
0.232403
0.125925
0.0497163
0.687853
0.695063
0.694464
0.679845
0.647176
0.593022
0.515629
0.417629
0.307296
0.202499
0.122069
0.0500349
0.616694
0.626511
0.628734
0.617307
0.588146
0.537996
0.465471
0.375053
0.277315
0.188773
0.121147
0.0494979
0.545853
0.557383
0.561833
0.553649
0.52913
0.485423
0.420898
0.341046
0.256486
0.180444
0.119572
0.0471934
0.475772
0.48823
0.494298
0.488998
0.469699
0.433787
0.378792
0.310358
0.237988
0.171739
0.11479
0.0433754
0.40611
0.418705
0.425813
0.422973
0.408481
0.380565
0.336093
0.278748
0.217209
0.159101
0.104856
0.0377737
0.334317
0.346283
0.353841
0.352873
0.34236
0.321695
0.288355
0.241839
0.189953
0.139249
0.0877573
0.0303542
0.250757
0.261032
0.268209
0.268501
0.261575
0.246662
0.2245
0.191758
0.148899
0.106437
0.0598939
0.0212335
0.112593
0.118549
0.123589
0.125613
0.12423
0.119301
0.110928
0.0986152
0.0814619
0.0594622
0.0359178
0.0138372
0.520218
0.75432
0.787442
0.813488
0.848888
0.890207
0.93178
0.963833
0.984623
0.99566
0.995231
0.981849
0.377366
0.624937
0.679397
0.714742
0.753009
0.794927
0.83599
0.868162
0.89017
0.903424
0.907835
0.903646
0.304914
0.519853
0.581637
0.622525
0.662406
0.703879
0.743784
0.775972
0.799451
0.815106
0.824106
0.827373
0.25285
0.433528
0.495085
0.53782
0.577943
0.618085
0.65624
0.68803
0.712559
0.730448
0.743193
0.752005
0.211194
0.361239
0.418793
0.460959
0.500074
0.538148
0.574036
0.604848
0.629706
0.649209
0.664702
0.677283
0.175724
0.298976
0.351391
0.391666
0.428865
0.464299
0.497486
0.526746
0.551234
0.571451
0.588586
0.603594
0.145322
0.243396
0.291337
0.32923
0.364013
0.396397
0.426548
0.453755
0.477278
0.497413
0.515147
0.531302
0.119345
0.19255
0.237126
0.272685
0.304792
0.333855
0.360731
0.385496
0.407578
0.426993
0.444468
0.460735
0.0959471
0.146194
0.187436
0.220802
0.249928
0.275435
0.29883
0.320852
0.34112
0.359316
0.37586
0.391427
0.0737807
0.104469
0.141033
0.171592
0.196844
0.218312
0.237925
0.256939
0.275104
0.291681
0.306671
0.320799
0.0529771
0.0679036
0.0956826
0.12013
0.139106
0.155187
0.170118
0.185462
0.20101
0.21539
0.227835
0.239494
0.0233885
0.0283669
0.0411326
0.0531177
0.0616496
0.0683146
0.0743638
0.0808061
0.0877595
0.0943975
0.100606
0.106573
)
;

boundaryField
{
    rotor
    {
        type            kqRWallFunction;
        value           nonuniform List<scalar> 
192
(
0.0339102
0.0456461
0.0506337
0.050762
0.0482107
0.042605
0.0431775
0.0606423
0.169509
0.251094
0.284396
0.30406
0.317174
0.323469
0.325511
0.324431
0.320784
0.309455
0.293969
0.269704
0.239968
0.199132
0.151278
0.117248
0.0338874
0.0456243
0.0506211
0.050754
0.0482106
0.0426065
0.043177
0.0606163
0.169436
0.251078
0.2844
0.304067
0.317188
0.323485
0.325532
0.324453
0.32081
0.309481
0.293996
0.269729
0.23999
0.199152
0.151296
0.117264
0.033875
0.0456011
0.0505933
0.0507224
0.0481721
0.0425731
0.0431558
0.0606707
0.169642
0.251175
0.284462
0.30413
0.31724
0.323534
0.325571
0.32449
0.320838
0.309505
0.294011
0.269741
0.239997
0.199154
0.151293
0.11726
0.0338867
0.0456215
0.0506189
0.0507512
0.0482062
0.0426032
0.0431773
0.0606408
0.169516
0.251123
0.284433
0.304101
0.317219
0.323515
0.325559
0.324479
0.320833
0.309502
0.294013
0.269743
0.24
0.199159
0.1513
0.117269
0.0339102
0.058019
0.0715645
0.0975389
0.112984
0.123628
0.131622
0.139633
0.152374
0.172176
0.206535
0.592354
0.117269
0.276882
0.404712
0.503553
0.590517
0.674255
0.754929
0.847409
0.952447
1.06422
1.1966
1.39148
0.0338874
0.0580101
0.0715591
0.0975308
0.112974
0.123617
0.131621
0.139641
0.152395
0.172207
0.206568
0.592368
0.117248
0.276842
0.404665
0.503493
0.590449
0.674177
0.754844
0.847314
0.952343
1.06411
1.19648
1.39136
0.033875
0.0579897
0.071536
0.0975241
0.112981
0.123636
0.131629
0.139639
0.152375
0.172171
0.206534
0.592412
0.117264
0.276873
0.404701
0.503537
0.590499
0.674232
0.754904
0.84738
0.952416
1.06419
1.19657
1.39146
0.0338867
0.0580104
0.0715604
0.0975348
0.11298
0.123623
0.131624
0.139641
0.152392
0.172203
0.20657
0.592421
0.11726
0.276868
0.404703
0.503549
0.590518
0.674261
0.75494
0.847425
0.952469
1.06425
1.19663
1.39154
)
;
    }
    stator
    {
        type            kqRWallFunction;
        value           nonuniform List<scalar> 
192
(
0.112552
0.118511
0.123557
0.125586
0.124206
0.119279
0.110909
0.0985989
0.0814491
0.0594533
0.0359128
0.0138358
0.0233855
0.0283633
0.041127
0.0531117
0.0616423
0.0683052
0.0743519
0.0807918
0.0877438
0.0943812
0.100591
0.106566
0.112573
0.118534
0.123579
0.125609
0.124229
0.119302
0.110931
0.0986193
0.0814676
0.0594674
0.0359221
0.0138394
0.0233883
0.0283687
0.0411407
0.0531289
0.0616607
0.0683234
0.0743696
0.0808091
0.0877609
0.0943975
0.100607
0.106582
0.112588
0.118548
0.123591
0.125621
0.124239
0.119312
0.110939
0.0986253
0.0814704
0.0594682
0.0359212
0.0138386
0.0233966
0.0283778
0.041155
0.0531455
0.0616801
0.0683449
0.0743915
0.0808295
0.0877787
0.0944131
0.100619
0.10659
0.112593
0.118549
0.123589
0.125613