/*--------------------------------*- C++ -*----------------------------------*\
| =========                 |                                                 |
| \\      /  F ield         | OpenFOAM: The Open Source CFD Toolbox           |
|  \\    /   O peration     | Version:  4.0                                   |
|   \\  /    A nd           | Web:      www.OpenFOAM.org                      |
|    \\/     M anipulation  |                                                 |
\*---------------------------------------------------------------------------*/
FoamFile
{
    version     2.0;
    format      ascii;
    class       volScalarField;
    location    "450";
    object      nut;
}
// * * * * * * * * * * * * * * * * * * * * * * * * * * * * * * * * * * * * * //

dimensions      [0 2 -1 0 0 0 0];

internalField   nonuniform List<scalar> 
3072
(
2.87674e-05
6.11325e-05
6.43761e-05
6.4463e-05
6.28398e-05
5.90683e-05
5.94267e-05
7.0214e-05
0.000117345
0.000143165
0.000152443
0.000157635
4.2038e-05
0.00015935
0.000204065
0.000199288
0.000127596
7.52539e-05
0.000126659
0.000151922
0.000213937
0.000306484
0.000417257
0.000557432
5.15903e-05
0.000208526
0.000267899
0.000245274
0.000214874
0.000193649
0.000249683
0.00037998
0.000550177
0.000765853
0.00098462
0.00118691
6.5953e-05
0.000306411
0.000319043
0.000288589
0.000272446
0.000331497
0.000516047
0.000738843
0.000983517
0.00124245
0.00148236
0.00169149
7.7148e-05
0.000360657
0.0003756
0.00035977
0.000411836
0.000609141
0.000851526
0.00110525
0.00136642
0.00162877
0.00186609
0.00207213
8.71537e-05
0.000420553
0.000475477
0.000511009
0.000671256
0.000910246
0.00116469
0.00142725
0.00168386
0.00192843
0.0021492
0.00234326
9.66064e-05
0.000500316
0.000622982
0.000748326
0.000970423
0.0012194
0.00146932
0.0017162
0.0019556
0.00217588
0.0023733
0.00254666
0.000106395
0.000614143
0.000835215
0.00106505
0.00131022
0.00154832
0.00177492
0.00198804
0.00218722
0.00236717
0.00252772
0.00267001
0.000118348
0.000753827
0.00110877
0.00138919
0.00163006
0.00184158
0.00202734
0.00219218
0.00234074
0.00247498
0.00259695
0.0027082
0.000133442
0.000858076
0.0012954
0.00159739
0.0018237
0.00200708
0.00216202
0.0022962
0.002413
0.00251719
0.00261206
0.00269982
0.000154489
0.000798425
0.00136578
0.00169979
0.00193298
0.00211095
0.00225324
0.00237069
0.0024648
0.00254565
0.00261769
0.00268408
0.000275688
0.00077181
0.00144504
0.00182628
0.00204222
0.00220861
0.00234906
0.00244735
0.00252393
0.00258534
0.00263716
0.00268334
0.000161022
0.000162621
0.000163149
0.00016288
0.000161972
0.00015909
0.000155068
0.000148531
0.000140112
0.000127634
0.000111249
5.3489e-05
0.000699804
0.000823563
0.000916257
0.000948494
0.000926431
0.000871383
0.000782386
0.000658674
0.000505459
0.000308984
0.000156075
9.18427e-05
0.00135805
0.0014847
0.0015566
0.00157221
0.00153459
0.00144996
0.00131328
0.00112499
0.000883279
0.000591213
0.000263919
0.00012271
0.00186382
0.00199307
0.00207534
0.00210836
0.00208945
0.00201335
0.00187253
0.0016567
0.00135637
0.000966481
0.000472614
0.000149896
0.00224355
0.00237773
0.00247214
0.00252365
0.00252761
0.00247666
0.00235702
0.0021468
0.00180349
0.00132607
0.000695492
0.000176427
0.00250974
0.00264531
0.00274864
0.00281755
0.00284808
0.00283244
0.00275221
0.00257562
0.00225549
0.00172485
0.000979517
0.000203591
0.0026948
0.00281853
0.00291861
0.0029959
0.00305003
0.00307519
0.00305228
0.00293853
0.00266037
0.00212183
0.0012742
0.000231374
0.00279289
0.00289888
0.0029906
0.00307051
0.00314029
0.00320033
0.00323725
0.00320706
0.003015
0.00250523
0.00156973
0.000262034
0.00280934
0.00290146
0.00298724
0.00306631
0.00314281
0.00322685
0.0033136
0.0033719
0.00329726
0.00286545
0.00183379
0.000295717
0.00278212
0.00286106
0.00294217
0.003025
0.00310337
0.00318774
0.00330344
0.00343563
0.00349456
0.0032061
0.0021418
0.000331529
0.00274791
0.00281243
0.00288177
0.00296347
0.00306112
0.00314214
0.00325493
0.00342114
0.00359275
0.00350408
0.00251273
0.000371634
0.00272903
0.00277955
0.00283882
0.00291183
0.00302039
0.00311446
0.0032162
0.00338393
0.00360898
0.00370125
0.0029481
0.000422436
2.87586e-05
6.11179e-05
6.43685e-05
6.44584e-05
6.28402e-05
5.90696e-05
5.94266e-05
7.01993e-05
0.000117319
0.00014316
0.000152444
0.000157636
4.20349e-05
0.000159319
0.000204077
0.000199343
0.000127699
7.52841e-05
0.00012664
0.000151892
0.000213886
0.000306435
0.000417173
0.000557352
5.15879e-05
0.000208507
0.000267942
0.000245362
0.000214953
0.000193669
0.000249581
0.00037987
0.000550036
0.000765704
0.000984476
0.00118679
6.59496e-05
0.000306432
0.000319113
0.000288617
0.000272434
0.000331348
0.000515864
0.000738653
0.000983327
0.00124227
0.0014822
0.00169136
7.71444e-05
0.000360671
0.000375591
0.000359726
0.000411674
0.000608894
0.000851319
0.00110504
0.00136622
0.00162859
0.00186594
0.002072
8.71494e-05
0.000420523
0.000475399
0.000510851
0.000671033
0.000910037
0.00116449
0.00142706
0.00168368
0.00192827
0.00214906
0.00234315
9.66059e-05
0.000500295
0.000622896
0.000748182
0.000970262
0.00121925
0.00146916
0.00171604
0.00195545
0.00217576
0.00237319
0.00254658
0.000106398
0.000614177
0.000835224
0.00106502
0.00131018
0.00154826
0.00177484
0.00198795
0.00218714
0.0023671
0.00252766
0.00266998
0.000118357
0.000753944
0.00110887
0.00138927
0.00163012
0.00184162
0.00202735
0.00219217
0.00234073
0.00247497
0.00259695
0.00270822
0.000133455
0.000858204
0.00129552
0.00159752
0.00182381
0.00200718
0.00216212
0.00229629
0.00241307
0.00251725
0.00261212
0.00269988
0.000154502
0.000798509
0.00136589
0.00169992
0.00193315
0.00211112
0.00225341
0.00237086
0.00246495
0.00254578
0.00261782
0.0026842
0.000275691
0.00077186
0.00144514
0.00182641
0.00204241
0.00220882
0.00234928
0.00244757
0.00252414
0.00258554
0.00263734
0.00268351
0.000161026
0.000162625
0.000163154
0.000162886
0.000161978
0.000159097
0.000155075
0.000148537
0.000140119
0.00012764
0.000111255
5.34928e-05
0.000699729
0.000823506
0.000916218
0.000948483
0.000926437
0.000871396
0.000782405
0.000658698
0.000505483
0.000309
0.000156084
9.18479e-05
0.00135794
0.00148462
0.00155656
0.00157219
0.00153459
0.00144998
0.00131331
0.00112503
0.000883316
0.000591245
0.000263933
0.000122716
0.00186372
0.00199299
0.00207529
0.00210834
0.00208944
0.00201337
0.00187256
0.00165674
0.00135642
0.000966516
0.000472636
0.000149903
0.00224345
0.00237766
0.00247209
0.00252363
0.00252762
0.00247669
0.00235707
0.00214686
0.00180354
0.00132612
0.000695523
0.000176434
0.00250965
0.00264525
0.0027486
0.00281755
0.0028481
0.00283248
0.00275227
0.00257569
0.00225557
0.00172491
0.000979555
0.000203599
0.00269474
0.0028185
0.0029186
0.00299591
0.00305006
0.00307525
0.00305236
0.00293862
0.00266047
0.00212191
0.00127425
0.000231383
0.00279287
0.00289889
0.00299062
0.00307055
0.00314035
0.00320041
0.00323736
0.00320718
0.00301512
0.00250533
0.00156979
0.000262044
0.00280937
0.00290151
0.0029873
0.00306639
0.00314291
0.00322697
0.00331373
0.00337206
0.00329742
0.00286559
0.00183387
0.000295728
0.00278219
0.00286114
0.00294227
0.00302512
0.00310349
0.00318788
0.00330361
0.00343582
0.00349476
0.00320627
0.00214189
0.000331541
0.00274803
0.00281256
0.0028819
0.00296362
0.00306128
0.0031423
0.00325512
0.00342136
0.00359299
0.0035043
0.00251285
0.000371648
0.00272919
0.00277971
0.00283899
0.00291202
0.00302059
0.00311465
0.00321642
0.00338417
0.00360927
0.00370152
0.00294826
0.000422451
2.87534e-05
6.11024e-05
6.43507e-05
6.44383e-05
6.28153e-05
5.90469e-05
5.94121e-05
7.02281e-05
0.000117388
0.000143187
0.00015246
0.000157652
4.20279e-05
0.000159289
0.000203964
0.000199146
0.000127433
7.51867e-05
0.000126676
0.000151991
0.000214042
0.000306605
0.000417455
0.000557646
5.15801e-05
0.000208459
0.000267802
0.000245138
0.000214738
0.000193609
0.000249895
0.000380191
0.000550466
0.000766193
0.000984993
0.00118729
6.59474e-05
0.000306337
0.000318941
0.000288544
0.000272456
0.00033175
0.000516387
0.000739204
0.000983923
0.0012429
0.00148282
0.00169197
7.71465e-05
0.000360641
0.000375622
0.000359839
0.000412106
0.000609538
0.0008519
0.00110566
0.0013669
0.00162928
0.00186662
0.00207267
8.71554e-05
0.000420617
0.000475614
0.000511261
0.000671624
0.000910617
0.00116509
0.00142769
0.00168435
0.00192896
0.00214975
0.00234385
9.66081e-05
0.000500405
0.000623174
0.00074863
0.000970772
0.00121977
0.00146973
0.00171667
0.0019561
0.00217642
0.00237387
0.00254726
0.000106396
0.0006142
0.000835382
0.00106529
0.00131051
0.00154867
0.00177532
0.00198849
0.00218772
0.0023677
0.00252827
0.0026706
0.000118348
0.000753828
0.00110886
0.00138935
0.00163028
0.00184187
0.00202768
0.00219256
0.00234117
0.00247545
0.00259745
0.00270875
0.00013344
0.000858061
0.00129546
0.00159751
0.00182387
0.00200729
0.00216228
0.00229651
0.00241335
0.00251758
0.0026125
0.0027003
0.000154489
0.000798437
0.00136584
0.00169989
0.00193311
0.00211112
0.00225345
0.00237095
0.00246509
0.00254598
0.00261806
0.00268449
0.000275702
0.000771881
0.00144513
0.00182642
0.00204238
0.0022088
0.00234927
0.0024476
0.00252421
0.00258564
0.00263749
0.0026837
0.000161039
0.000162637
0.000163164
0.000162895
0.000161985
0.000159103
0.000155079
0.000148541
0.000140121
0.000127641
0.000111254
5.34918e-05
0.00070004
0.0008238
0.000916496
0.000948715
0.000926628
0.000871565
0.000782543
0.000658794
0.000505541
0.000309025
0.000156089
9.18471e-05
0.00135845
0.0014851
0.00155698
0.00157257
0.00153492
0.00145025
0.00131353
0.00112519
0.00088343
0.000591309
0.000263952
0.000122716
0.00186431
0.00199356
0.00207582
0.00210882
0.00208988
0.00201375
0.00187288
0.00165698
0.00135659
0.000966621
0.000472675
0.000149905
0.0022441
0.00237829
0.00247269
0.00252419
0.00252813
0.00247715
0.00235746
0.00214717
0.00180378
0.00132628
0.000695578
0.000176437
0.00251034
0.00264592
0.00274925
0.00281816
0.00284868
0.00283302
0.00275274
0.00257608
0.00225586
0.0017251
0.000979636
0.000203603
0.00269542
0.00281917
0.00291926
0.00299655
0.00305068
0.00307583
0.00305289
0.00293908
0.00266082
0.00212214
0.00127435
0.000231388
0.0027935
0.00289952
0.00299126
0.00307119
0.00314098
0.00320102
0.00323793
0.00320769
0.00301553
0.00250561
0.0015699
0.000262051
0.00280993
0.00290208
0.00298789
0.00306699
0.00314351
0.00322757
0.00331433
0.00337261
0.00329789
0.00286591
0.001834
0.000295736
0.00278264
0.00286163
0.00294279
0.00302566
0.00310404
0.00318845
0.00330419
0.0034364
0.00349528
0.00320664
0.00214204
0.000331551
0.00274836
0.00281293
0.00288231
0.00296408
0.00306176
0.0031428
0.00325565
0.00342193
0.00359354
0.00350471
0.00251301
0.000371658
0.00272942
0.00277998
0.00283929
0.00291238
0.00302098
0.00311505
0.00321687
0.00338469
0.00360983
0.003702
0.00294844
0.000422463
2.87583e-05
6.1116e-05
6.43671e-05
6.44566e-05
6.28373e-05
5.90673e-05
5.94267e-05
7.02128e-05
0.000117346
0.000143173
0.000152452
0.000157645
4.20351e-05
0.000159319
0.000204063
0.000199307
0.000127639
7.5265e-05
0.000126662
0.000151925
0.000213941
0.000306495
0.000417276
0.000557463
5.15885e-05
0.000208509
0.000267929
0.000245329
0.000214921
0.000193672
0.000249665
0.000379973
0.000550177
0.000765873
0.000984662
0.00118697
6.59511e-05
0.000306425
0.000319091
0.000288617
0.000272453
0.000331457
0.000516012
0.000738827
0.000983523
0.00124249
0.00148243
0.00169158
7.71464e-05
0.000360674
0.000375607
0.000359758
0.000411778
0.00060905
0.000851482
0.00110523
0.00136644
0.00162883
0.00186618
0.00207224
8.71517e-05
0.000420544
0.000475437
0.000510932
0.00067115
0.000910173
0.00116465
0.00142724
0.00168389
0.0019285
0.0021493
0.0023434
9.66071e-05
0.000500303
0.000622924
0.000748234
0.000970341
0.00121935
0.0014693
0.00171621
0.00195564
0.00217597
0.00237342
0.00254682
0.000106398
0.000614159
0.000835207
0.00106504
0.00131022
0.00154834
0.00177496
0.0019881
0.00218732
0.0023673
0.00252787
0.0026702
0.000118356
0.000753907
0.00110886
0.00138929
0.00163017
0.0018417
0.00202746
0.00219231
0.00234089
0.00247516
0.00259715
0.00270843
0.000133453
0.000858192
0.00129555
0.00159757
0.00182389
0.00200727
0.00216223
0.00229642
0.00241322
0.00251742
0.00261231
0.00270009
0.000154503
0.000798541
0.00136595
0.0017
0.00193323
0.00211123
0.00225353
0.00237098
0.00246509
0.00254594
0.002618
0.00268439
0.000275704
0.000771934
0.00144523
0.00182654
0.00204253
0.00220895
0.00234941
0.00244772
0.0025243
0.0025857
0.00263752
0.00268371
0.000161034
0.000162632
0.000163161
0.000162892
0.000161984
0.000159102
0.000155079
0.000148541
0.000140122
0.000127642
0.000111257
5.34938e-05
0.00069985
0.000823626
0.000916336
0.000948586
0.000926525
0.000871477
0.000782473
0.000658749
0.000505519
0.000309018
0.00015609
9.18493e-05
0.00135814
0.00148481
0.00155673
0.00157236
0.00153474
0.00145011
0.00131342
0.00112512
0.000883381
0.000591285
0.000263946
0.000122718
0.00186395
0.00199322
0.00207551
0.00210855
0.00208964
0.00201355
0.00187272
0.00165686
0.00135651
0.000966576
0.000472661
0.000149905
0.0022437
0.0023779
0.00247233
0.00252386
0.00252784
0.0024769
0.00235725
0.00214702
0.00180367
0.00132621
0.000695559
0.000176437
0.00250991
0.0026455
0.00274886
0.0028178
0.00284834
0.00283272
0.00275249
0.00257588
0.00225572
0.00172502
0.000979604
0.000203602
0.00269499
0.00281875
0.00291886
0.00299617
0.00305033
0.00307551
0.00305261
0.00293884
0.00266065
0.00212204
0.00127431
0.000231387
0.00279311
0.00289914
0.00299088
0.00307082
0.00314063
0.00320069
0.00323762
0.00320743
0.00301532
0.00250548
0.00156986
0.000262049
0.0028096
0.00290175
0.00298756
0.00306665
0.00314318
0.00322725
0.00331402
0.00337233
0.00329765
0.00286575
0.00183394
0.000295733
0.00278241
0.00286138
0.00294253
0.00302538
0.00310376
0.00318817
0.0033039
0.0034361
0.00349501
0.00320645
0.00214197
0.000331546
0.00274824
0.00281279
0.00288215
0.00296389
0.00306155
0.00314257
0.00325541
0.00342165
0.00359324
0.00350448
0.00251293
0.000371652
0.0027294
0.00277994
0.00283923
0.00291227
0.00302084
0.00311491
0.00321668
0.00338444
0.00360951
0.00370171
0.00294831
0.000422455
0.0017148
0.00180056
0.00194077
0.00209907
0.00224047
0.00236392
0.00246876
0.00254044
0.00259557
0.00263697
0.00266977
0.00269766
0.0028162
0.00263159
0.00256431
0.00255467
0.00257258
0.00259857
0.00262215
0.00264536
0.00267018
0.00268885
0.00270406
0.00271854
0.00355665
0.0033216
0.00314152
0.0030147
0.00292036
0.00285659
0.00281343
0.00278772
0.00277517
0.00276049
0.0027494
0.00275363
0.00381785
0.00363369
0.00344151
0.00326537
0.00312306
0.00300899
0.00291931
0.00285611
0.00282032
0.00280459
0.00280735
0.00283182
0.00272836
0.0027697
0.0028251
0.0028989
0.00301073
0.00311487
0.00321581
0.00338185
0.00360743
0.0038618
0.00387529
0.001809
0.00274349
0.00278758
0.00285001
0.00293463
0.00304158
0.00315378
0.00326334
0.00342079
0.0036239
0.00386145
0.00426942
0.0031517
0.00278737
0.00285095
0.00293328
0.00302669
0.00313037
0.00325146
0.00337415
0.00351434
0.00368233
0.00385763
0.00422875
0.00383124
0.00289205
0.00299476
0.00308883
0.00319444
0.00330634
0.00342835
0.00355222
0.00367323
0.00380071
0.00390939
0.00413602
0.00400847
0.00171484
0.00180065
0.00194087
0.00209923
0.00224068
0.00236413
0.002469
0.00254069
0.00259582
0.00263721
0.00267
0.00269787
0.00281624
0.00263171
0.00256445
0.00255487
0.00257281
0.00259881
0.0026224
0.00264563
0.00267046
0.00268912
0.00270432
0.00271878
0.00355658
0.0033218
0.00314173
0.00301494
0.0029206
0.00285684
0.00281369
0.002788
0.00277547
0.00276079
0.00274969
0.00275389
0.00381773
0.00363381
0.00344179
0.00326566
0.00312335
0.00300927
0.00291959
0.0028564
0.00282062
0.00280488
0.00280764
0.0028321
0.00272856
0.0027699
0.0028253
0.00289911
0.00301095
0.0031151
0.00321606
0.00338213
0.00360775
0.00386214
0.00387556
0.0018091
0.00274372
0.00278781
0.00285023
0.00293487
0.00304184
0.00315406
0.00326363
0.00342111
0.00362425
0.00386183
0.00426978
0.00315193
0.00278763
0.0028512
0.00293353
0.00302696
0.00313066
0.00325177
0.00337448
0.0035147
0.00368271
0.00385803
0.00422916
0.00383156
0.00289231
0.00299503
0.00308911
0.00319475
0.00330667
0.00342872
0.0035526
0.00367362
0.00380112
0.0039098
0.00413643
0.00400882
0.00171496
0.00180076
0.00194097
0.0020993
0.00224071
0.00236418
0.00246902
0.00254072
0.00259586
0.00263727
0.00267008
0.00269799
0.00281645
0.00263189
0.00256463
0.002555
0.00257291
0.0025989
0.00262248
0.00264569
0.00267051
0.00268917
0.00270437
0.00271885
0.00355686
0.00332204
0.00314195
0.00301511
0.00292077
0.00285698
0.00281381
0.00278809
0.00277553
0.00276083
0.00274971
0.00275395
0.00381805
0.00363408
0.00344203
0.00326585
0.00312352
0.00300942
0.00291972
0.0028565
0.00282068
0.00280493
0.00280768
0.00283215
0.00272871
0.00277008
0.00282551
0.00289939
0.00301127
0.00311542
0.00321644
0.0033826
0.00360829
0.00386268
0.00387583
0.00180914
0.00274382
0.00278793
0.0028504
0.00293509
0.00304208
0.00315433
0.00326398
0.00342154
0.00362475
0.0038624
0.00427021
0.0031521
0.0027877
0.00285131
0.00293369
0.00302715
0.00313091
0.00325208
0.00337482
0.00351511
0.00368319
0.00385856
0.0042297
0.00383192
0.00289241
0.00299517
0.00308932
0.00319501
0.00330699
0.00342909
0.00355298
0.00367406
0.00380159
0.00391031
0.00413696
0.00400926
0.00171494
0.00180077
0.00194102
0.00209939
0.00224084
0.00236432
0.00246918
0.00254087
0.002596
0.0026374
0.00267019
0.00269807
0.00281655
0.00263196
0.0025647
0.0025551
0.00257303
0.00259904
0.00262263
0.00264585
0.00267067
0.00268933
0.00270452
0.00271899
0.00355713
0.00332224
0.00314211
0.00301526
0.00292091
0.00285714
0.00281397
0.00278826
0.00277569
0.00276099
0.00274986
0.00275411
0.0038184
0.00363437
0.00344224
0.00326604
0.00312369
0.00300958
0.00291988
0.00285666
0.00282083
0.00280507
0.0028078
0.00283225
0.00272877
0.00277012
0.00282553
0.00289936
0.00301119
0.00311533
0.00321629
0.00338234
0.00360794
0.00386231
0.0038756
0.0018091
0.00274394
0.00278803
0.00285045
0.00293508
0.00304203
0.00315425
0.00326379
0.00342125
0.00362437
0.00386197
0.00426982
0.00315191
0.00278783
0.0028514
0.0029337
0.00302712
0.00313079
0.00325189
0.00337459
0.00351478
0.00368278
0.0038581
0.00422919
0.00383157
0.00289244
0.00299514
0.00308919
0.00319481
0.00330672
0.00342877
0.00355264
0.00367364
0.00380114
0.00390983
0.00413643
0.00400884
0.00368346
0.00349611
0.00331513
0.00315464
0.00302397
0.00292134
0.00284632
0.0028002
0.00278435
0.00279559
0.00284957
0.00295418
0.00359355
0.00341121
0.00323893
0.00308447
0.00295345
0.00284612
0.0027643
0.00270775
0.0026766
0.00266933
0.00271074
0.00281874
0.00352958
0.00335719
0.00319099
0.00303479
0.00289265
0.0027655
0.00265451
0.00255468
0.00245769
0.0023678
0.00230863
0.00232569
0.00347573
0.00331764
0.0031576
0.00299648
0.00283569
0.00267776
0.00251858
0.00235131
0.00215738
0.00193154
0.00167362
0.00146239
0.00308227
0.00327643
0.00340248
0.00350874
0.00361648
0.00372126
0.00381375
0.00389223
0.00395651
0.00400002
0.00402095
0.00388625
0.00299058
0.00336259
0.00352977
0.0036388
0.00374187
0.00383299
0.00390748
0.00395927
0.00398388
0.00398408
0.00394269
0.00378447
0.00250516
0.0032516
0.00352339
0.00365374
0.00376027
0.00384413
0.00390977
0.00394247
0.00394722
0.00393138
0.00386305
0.00370578
0.00150311
0.00289883
0.00339969
0.00359059
0.00370701
0.0037899
0.00385208
0.00387544
0.00387402
0.00385223
0.00377974
0.00363528
0.00368356
0.00349635
0.00331546
0.00315496
0.00302429
0.00292164
0.0028466
0.00280048
0.00278463
0.00279585
0.00284983
0.00295444
0.00359377
0.00341152
0.00323928
0.00308481
0.00295377
0.00284642
0.00276459
0.00270801
0.00267684
0.00266956
0.00271096
0.00281897
0.00352986
0.00335753
0.00319135
0.00303513
0.00289298
0.0027658
0.00265478
0.00255493
0.00245791
0.00236799
0.00230881
0.00232587
0.00347603
0.00331799
0.00315797
0.00299684
0.00283602
0.00267806
0.00251886
0.00235155
0.00215758
0.0019317
0.00167374
0.00146248
0.00308254
0.00327675
0.00340283
0.00350912
0.00361688
0.00372167
0.00381416
0.00389263
0.00395691
0.00400041
0.00402132
0.00388657
0.00299083
0.00336293
0.00353017
0.00363923
0.00374231
0.00383344
0.00390791
0.00395969
0.00398428
0.00398446
0.00394304
0.00378477
0.00250537
0.00325193
0.00352381
0.00365421
0.00376075
0.0038446
0.00391022
0.00394289
0.00394762
0.00393175
0.00386339
0.00370608
0.00150321
0.00289912
0.00340013
0.00359108
0.00370751
0.0037904
0.00385255
0.00387587
0.00387443
0.0038526
0.00378007
0.00363557
0.00368384
0.00349658
0.00331565
0.00315512
0.00302442
0.00292175
0.0028467
0.00280055
0.00278467
0.00279592
0.00284991
0.00295456
0.00359403
0.00341173
0.00323945
0.00308494
0.00295387
0.0028465
0.00276465
0.00270806
0.00267689
0.00266964
0.00271104
0.00281912
0.00353011
0.00335773
0.0031915
0.00303525
0.00289306
0.00276586
0.00265482
0.00255495
0.00245794
0.00236807
0.00230884
0.00232595
0.00347627
0.00331819
0.00315811
0.00299694
0.00283608
0.0026781
0.00251887
0.00235155
0.00215759
0.00193173
0.00167377
0.00146251
0.00308276
0.003277
0.00340314
0.0035095
0.00361727
0.0037221
0.00381459
0.00389308
0.00395737
0.00400088
0.00402176
0.00388695
0.00299108
0.00336324
0.00353057
0.00363967
0.00374276
0.0038339
0.00390837
0.00396014
0.00398472
0.00398489
0.00394344
0.00378511
0.00250559
0.00325225
0.00352424
0.00365467
0.00376122
0.00384508
0.00391068
0.00394334
0.00394806
0.00393216
0.00386374
0.00370638
0.00150332
0.00289944
0.00340056
0.00359156
0.003708
0.00379088
0.003853
0.00387631
0.00387485
0.003853
0.0037804
0.00363586
0.00368415
0.00349683
0.00331586
0.0031553
0.00302459
0.00292191
0.00284685
0.00280068
0.00278478
0.00279596
0.00284992
0.00295449
0.00359431
0.00341196
0.00323965
0.00308512
0.00295404
0.00284665
0.00276477
0.00270816
0.00267696
0.00266964
0.002711
0.00281896
0.00353036
0.00335794
0.00319169
0.00303543
0.00289322
0.00276599
0.00265492
0.00255506
0.00245801
0.00236814
0.00230886
0.00232584
0.00347652
0.00331839
0.00315829
0.0029971
0.00283623
0.00267824
0.00251899
0.00235164
0.00215765
0.00193177
0.00167374
0.00146245
0.00308255
0.00327676
0.00340281
0.00350908
0.00361684
0.00372164
0.00381414
0.00389262
0.0039569
0.00400042
0.00402135
0.00388663
0.0029908
0.00336286
0.00353008
0.00363913
0.00374222
0.00383336
0.00390785
0.00395965
0.00398426
0.00398446
0.00394308
0.00378482
0.00250532
0.00325181
0.00352366
0.00365404
0.0037606
0.00384448
0.00391013
0.00394283
0.00394758
0.00393174
0.00386342
0.00370611
0.00150319
0.00289899
0.00339993
0.00359087
0.00370731
0.00379023
0.00385242
0.00387579
0.00387437
0.00385257
0.00378009
0.00363559
0.00342131
0.00328122
0.00312928
0.00296308
0.00278313
0.00259444
0.0023862
0.0021474
0.00185567
0.00147412
0.000905542
0.000280247
0.00335732
0.00323762
0.00309749
0.00292991
0.00273849
0.00252666
0.00228112
0.0019922
0.00164468
0.00121542
0.000619808
0.00014544
0.00327643
0.00317831
0.00305464
0.00289182
0.00269879
0.00247592
0.0022108
0.00189826
0.00153644
0.00113833
0.000629419
0.000126467
0.00317469
0.00309721
0.00299352
0.00284206
0.0026566
0.00243495
0.00216748
0.00185503
0.00150989
0.00116769
0.000727799
0.000129063
0.0030489
0.00299029
0.00290691
0.00277246
0.00260169
0.00239107
0.00213407
0.00183634
0.00151631
0.00119094
0.000782585
0.000133587
0.00289241
0.00285134
0.00278639
0.00267294
0.00252178
0.00232862
0.00208916
0.00181037
0.00150702
0.0011736
0.000783296
0.000136958
0.00269408
0.00266918
0.00262114
0.00252987
0.00240155
0.00222913
0.00200998
0.00174896
0.00145434
0.00111391
0.000740936
0.000137726
0.00243429
0.00242453
0.00239207
0.00232226
0.00221859
0.00206915
0.00187216
0.00162815
0.00134192
0.0010111
0.000657252
0.000135866
0.00208063
0.00208395
0.00206653
0.00201657
0.00193523
0.0018132
0.00164694
0.00142256
0.00115261
0.000851351
0.000534531
0.000130364
0.00158046
0.00159275
0.00158834
0.00155638
0.00149582
0.00140781
0.00128843
0.00109908
0.000870825
0.000626033
0.000371124
0.000120066
0.000866027
0.000878312
0.000881756
0.000866922
0.000835468
0.000787843
0.000727646
0.000622869
0.000471888
0.000327312
0.00017374
0.0001031
9.38401e-05
9.62858e-05
9.83093e-05
9.91108e-05
9.85638e-05
9.65892e-05
9.31382e-05
8.78168e-05
7.98143e-05
6.81893e-05
5.29974e-05
3.28945e-05
0.000377973
0.00239215
0.00319854
0.0034713
0.00360226
0.00368971
0.00375291
0.00377557
0.00377236
0.00375095
0.00368626
0.00356208
0.000333267
0.00213507
0.00298516
0.00331278
0.0034588
0.00355367
0.00362239
0.00364979
0.00365055
0.00363089
0.0035771
0.0034771
0.000309756
0.00192731
0.00276567
0.00312265
0.00328509
0.00338873
0.0034646
0.00350048
0.00351075
0.003496
0.00345202
0.00337256
0.000291343
0.00173598
0.00253938
0.00290951
0.00308633
0.00319851
0.00328111
0.00332737
0.00334826
0.0033428
0.00331019
0.00324958
0.000274736
0.00154869
0.00230484
0.00267747
0.00286461
0.00298352
0.00307152
0.00312838
0.00315911
0.00316533
0.00314711
0.00310447
0.00025833
0.00135605
0.00205854
0.00242684
0.00261886
0.00274135
0.00283308
0.0028986
0.00293927
0.00295751
0.00295423
0.00293029
0.000241949
0.00114139
0.00179541
0.00215495
0.00234428
0.00246553
0.0025585
0.00263037
0.00268032
0.00271
0.00272069
0.00271403
0.000225625
0.000908166
0.00151026
0.00185651
0.00203106
0.00214394
0.00223422
0.00230933
0.00236677
0.00240631
0.002429
0.00243734
0.000208008
0.00068173
0.00120423
0.00151908
0.00166174
0.00175645
0.00183798
0.00191155
0.00197267
0.00201876
0.00205002
0.00206979
0.000187405
0.000477333
0.000875043
0.0011107
0.00119669
0.00126104
0.00132633
0.00139313
0.00145447
0.00150381
0.00153707
0.00156179
0.000163036
0.000291983
0.000493185
0.000585645
0.000613061
0.000643719
0.000681431
0.000725812
0.000771029
0.000809254
0.000832268
0.000850497
4.28096e-05
4.71479e-05
5.68016e-05
6.45406e-05
6.95243e-05
7.31743e-05
7.63288e-05
7.95482e-05
8.2886e-05
8.59539e-05
8.87274e-05
9.1317e-05
0.00342165
0.00328158
0.00312965
0.00296344
0.00278347
0.00259475
0.00238647
0.00214764
0.00185587
0.00147427
0.000905616
0.000280265
0.00335769
0.00323798
0.00309787
0.00293027
0.00273882
0.00252697
0.0022814
0.00199245
0.00164489
0.00121557
0.000619909
0.000145459
0.00327681
0.00317867
0.00305501
0.00289218
0.00269913
0.00247624
0.00221109
0.00189852
0.00153667
0.00113852
0.000629551
0.000126488
0.00317509
0.00309757
0.00299389
0.00284243
0.00265694
0.00243528
0.00216778
0.0018553
0.00151013
0.00116789
0.000727949
0.000129084
0.00304933
0.00299066
0.00290727
0.00277282
0.00260203
0.00239139
0.00213437
0.00183661
0.00151655
0.00119115
0.000782749
0.000133608
0.00289284
0.0028517
0.00278675
0.00267329
0.00252212
0.00232894
0.00208946
0.00181064
0.00150726
0.00117382
0.00078346
0.00013698
0.00269448
0.00266954
0.00262148
0.0025302
0.00240187
0.00222944
0.00201027
0.00174922
0.00145458
0.00111412
0.000741097
0.000137747
0.00243465
0.00242485
0.00239238
0.00232256
0.00221889
0.00206943
0.00187243
0.0016284
0.00134215
0.00101129
0.000657395
0.000135887
0.00208093
0.00208422
0.00206679
0.00201683
0.00193548
0.00181344
0.00164718
0.00142278
0.00115281
0.000851511
0.000534646
0.000130384
0.00158067
0.00159294
0.00158853
0.00155657
0.00149601
0.00140799
0.0012886
0.00109925
0.000870977
0.000626152
0.000371206
0.000120084
0.000866146
0.000878412
0.000881852
0.000867018
0.000835566
0.000787942
0.00072774
0.000622968
0.000471977
0.000327376
0.00017378
0.000103115
9.38486e-05
9.6295e-05
9.83181e-05
9.91195e-05
9.85727e-05
9.65983e-05
9.31474e-05
8.78257e-05
7.98232e-05
6.81972e-05
5.3004e-05
3.28987e-05
0.000377993
0.0023924
0.00319898
0.00347181
0.00360279
0.00369022
0.00375339
0.00377601
0.00377277
0.00375133
0.00368658
0.00356237
0.000333286
0.00213531
0.00298559
0.0033133
0.00345935
0.0035542
0.00362288
0.00365024
0.00365096
0.00363126
0.00357743
0.00347739
0.000309774
0.00192755
0.0027661
0.00312317
0.00328564
0.00338927
0.0034651
0.00350093
0.00351116
0.00349637
0.00345235
0.00337284
0.000291361
0.00173622
0.0025398
0.00291002
0.00308687
0.00319904
0.00328161
0.00332783
0.00334867
0.00334316
0.00331051
0.00324986
0.000274754
0.00154892
0.00230525
0.00267797
0.00286514
0.00298404
0.00307202
0.00312883
0.00315951
0.00316569
0.00314743
0.00310474
0.000258348
0.00135627
0.00205892
0.00242732
0.00261936
0.00274185
0.00283355
0.00289903
0.00293966
0.00295785
0.00295453
0.00293055
0.000241966
0.0011416
0.00179577
0.00215539
0.00234473
0.00246598
0.00255893
0.00263076
0.00268068
0.00271033
0.00272097
0.00271428
0.000225642
0.000908356
0.00151058
0.00185689
0.00203146
0.00214432
0.00223459
0.00230968
0.00236709
0.0024066
0.00242925
0.00243757
0.000208024
0.000681889
0.00120451
0.00151939
0.00166205
0.00175675
0.00183827
0.00191182
0.00197293
0.00201899
0.00205023
0.00206998
0.000187419
0.000477454
0.000875269
0.00111092
0.00119689
0.00126124
0.00132652
0.00139331
0.00145464
0.00150398
0.00153722
0.00156193
0.000163048
0.000292048
0.000493313
0.000585747
0.000613157
0.00064381
0.000681519
0.000725901
0.000771117
0.000809337
0.000832345
0.00085057
4.2812e-05
4.71521e-05
5.68106e-05
6.45506e-05
6.95342e-05
7.31836e-05
7.63375e-05
7.95564e-05
8.28938e-05
8.59611e-05
8.87342e-05
9.13236e-05
0.00342189
0.00328177
0.00312979
0.00296353
0.00278352
0.00259477
0.00238647
0.00214762
0.00185585
0.00147426
0.000905622
0.000280278
0.00335793
0.00323817
0.00309801
0.00293037
0.00273888
0.00252699
0.00228138
0.00199241
0.00164484
0.00121553
0.000619877
0.000145458
0.00327705
0.00317887
0.00305516
0.00289229
0.00269919
0.00247626
0.00221107
0.00189847
0.0015366
0.00113845
0.000629497
0.000126483
0.00317533
0.00309777
0.00299404
0.00284254
0.00265702
0.00243531
0.00216778
0.00185526
0.00151007
0.00116783
0.000727896
0.000129079
0.00304956
0.00299086
0.00290743
0.00277294
0.00260212
0.00239144
0.00213438
0.00183659
0.00151651
0.0011911
0.000782699
0.000133603
0.00289307
0.0028519
0.00278691
0.00267342
0.00252222
0.002329
0.00208949
0.00181064
0.00150723
0.00117378
0.000783414
0.000136975
0.0026947
0.00266973
0.00262164
0.00253033
0.00240198
0.00222951
0.00201032
0.00174923
0.00145457
0.00111408
0.000741055
0.000137742
0.00243485
0.00242503
0.00239253
0.00232269
0.00221899
0.00206951
0.00187248
0.00162842
0.00134214
0.00101127
0.00065736
0.000135883
0.0020811
0.00208437
0.00206692
0.00201694
0.00193558
0.00181351
0.00164723
0.0014228
0.00115281
0.000851498
0.000534615
0.00013038
0.00158079
0.00159305
0.00158863
0.00155665
0.00149609
0.00140806
0.00128864
0.00109927
0.000870979
0.000626143
0.000371188
0.00012008