/*--------------------------------*- C++ -*----------------------------------*\
| =========                 |                                                 |
| \\      /  F ield         | OpenFOAM: The Open Source CFD Toolbox           |
|  \\    /   O peration     | Version:  4.0                                   |
|   \\  /    A nd           | Web:      www.OpenFOAM.org                      |
|    \\/     M anipulation  |                                                 |
\*---------------------------------------------------------------------------*/
FoamFile
{
    version     2.0;
    format      ascii;
    class       volScalarField;
    location    "450";
    object      p;
}
// * * * * * * * * * * * * * * * * * * * * * * * * * * * * * * * * * * * * * //

dimensions      [0 2 -2 0 0 0 0];

internalField   nonuniform List<scalar> 
3072
(
0.000108181
-0.111282
-0.21369
-0.283305
-0.318691
-0.304021
-0.265027
-0.202291
-0.0830774
0.106964
0.0560417
-0.183353
0.671451
0.480661
0.352367
0.28076
0.272661
0.359123
0.595651
0.815829
1.36472
2.02894
2.3225
2.49282
1.36513
1.07942
0.949747
0.934368
1.03885
1.28005
1.7256
2.16341
2.56114
2.92943
3.15952
3.34084
2.25709
1.98475
1.91696
2.00427
2.28633
2.71752
3.18236
3.6042
3.97138
4.27677
4.50151
4.68224
3.26661
3.1027
3.13232
3.34449
3.72701
4.17712
4.60853
4.98578
5.31254
5.57211
5.76715
5.91753
4.33363
4.2849
4.42264
4.72979
5.14507
5.57077
5.95442
6.27985
6.54754
6.75899
6.92072
7.0443
5.39786
5.47973
5.70977
6.07443
6.48916
6.87974
7.2125
7.48374
7.69972
7.86738
7.99474
8.09073
6.45615
6.69031
6.98576
7.37431
7.76493
8.10629
8.38327
8.60035
8.7669
8.89229
8.98564
9.0547
7.52193
7.92891
8.26242
8.64301
8.98606
9.26456
9.47779
9.63608
9.7514
9.83439
9.89434
9.93771
8.62385
9.16485
9.52057
9.87177
10.1519
10.3527
10.4919
10.5858
10.6481
10.6891
10.7176
10.7377
9.77082
10.4701
10.7837
11.0252
11.2141
11.3247
11.3858
11.4175
11.4318
11.4379
11.4422
11.4456
10.7925
11.791
11.9744
12.0249
12.092
12.1119
12.1064
12.091
12.0741
12.0611
12.0557
12.0541
-0.399921
-0.535016
-0.49974
-0.332667
-0.0271725
0.376329
0.8669
1.37252
1.82926
2.17656
2.32753
2.19969
2.58019
2.64928
2.68799
2.74204
2.81543
2.92248
3.03788
3.15645
3.25139
3.39791
3.35082
2.693
3.45912
3.54505
3.61994
3.70505
3.79804
3.88724
3.96657
4.00834
3.98142
3.95644
3.81291
2.8528
4.81557
4.91715
4.99517
5.05476
5.09264
5.10669
5.09185
5.01563
4.85678
4.66188
4.38789
3.15556
6.02665
6.10451
6.15689
6.18736
6.19464
6.17433
6.11546
6.00371
5.80928
5.53016
5.19835
3.76397
7.13448
7.19759
7.2373
7.25542
7.25086
7.21975
7.15188
7.03424
6.84265
6.55327
6.20662
4.77941
8.16043
8.20848
8.23792
8.25032
8.24531
8.22042
8.16939
8.0815
7.93782
7.71331
7.43663
6.15221
9.10467
9.13934
9.16179
9.17402
9.1769
9.17003
9.1508
9.11401
9.05167
8.94445
8.82717
7.87783
9.96926
9.99182
10.0087
10.0228
10.0369
10.0532
10.0726
10.0975
10.1345
10.1836
10.3116
9.88771
10.7532
10.7652
10.7772
10.7924
10.8165
10.8551
10.912
10.997
11.1303
11.3424
11.8233
12.1166
11.4507
11.4554
11.4641
11.4795
11.509
11.5626
11.6472
11.7784
11.9832
12.3294
13.2045
14.376
12.0583
12.0605
12.0685
12.0838
12.1131
12.1695
12.2626
12.4122
12.6368
13.0262
14.0024
15.8668
0.000199524
-0.111153
-0.213543
-0.283145
-0.318535
-0.303867
-0.264861
-0.202166
-0.0830004
0.107134
0.056343
-0.183029
0.671556
0.480792
0.352474
0.280856
0.272749
0.359148
0.595629
0.815862
1.36446
2.02886
2.32264
2.49295
1.36516
1.07943
0.949707
0.934284
1.03871
1.27984
1.72534
2.16326
2.56099
2.92939
3.15953
3.34086
2.25704
1.98461
1.91674
2.00398
2.28595
2.71717
3.18209
3.60403
3.97125
4.27673
4.50151
4.68226
3.26651
3.1025
3.13201
3.34409
3.72661
4.17681
4.60833
4.98565
5.31247
5.5721
5.76717
5.91757
4.33356
4.28472
4.42236
4.72947
5.14478
5.57058
5.95431
6.2798
6.54753
6.75902
6.92075
7.04435
5.39782
5.47958
5.70956
6.07421
6.489
6.87965
7.21247
7.48375
7.69975
7.86743
7.9948
8.09079
6.45616
6.69021
6.98563
7.37419
7.76486
8.10627
8.38329
8.60039
8.76696
8.89236
8.98571
9.05477
7.52196
7.92885
8.26234
8.64295
8.98604
9.26457
9.47783
9.63614
9.75147
9.83446
9.89441
9.93778
8.62387
9.16482
9.52053
9.87175
10.1519
10.3527
10.4919
10.5859
10.6481
10.6892
10.7176
10.7377
9.77083
10.47
10.7837
11.0252
11.2141
11.3247
11.3859
11.4176
11.4319
11.438
11.4423
11.4456
10.7925
11.791
11.9744
12.0249
12.092
12.112
12.1064
12.091
12.0741
12.0612
12.0558
12.0542
-0.399638
-0.534847
-0.499631
-0.332621
-0.0271435
0.376347
0.866941
1.37258
1.82937
2.17673
2.32775
2.19987
2.58031
2.6494
2.68809
2.74213
2.8155
2.92256
3.03796
3.15655
3.25151
3.39809
3.35099
2.69312
3.45918
3.54512
3.62001
3.70511
3.7981
3.8873
3.96664
4.00842
3.98151
3.95654
3.81301
2.85284
4.81561
4.9172
4.99523
5.05482
5.09269
5.10675
5.09191
5.0157
4.85684
4.66194
4.38794
3.15554
6.0267
6.10456
6.15695
6.18741
6.19469
6.17438
6.11551
6.00376
5.80932
5.5302
5.19838
3.76393
7.13453
7.19764
7.23735
7.25547
7.2509
7.2198
7.15192
7.03428
6.84269
6.5533
6.20664
4.77937
8.16049
8.20853
8.23798
8.25037
8.24536
8.22046
8.16943
8.08154
7.93785
7.71334
7.43665
6.15219
9.10473
9.1394
9.16185
9.17406
9.17694
9.17007
9.15084
9.11405
9.05171
8.9445
8.82723
7.87785
9.96932
9.99187
10.0087
10.0228
10.037
10.0532
10.0726
10.0975
10.1345
10.1837
10.3117
9.88781
10.7533
10.7652
10.7772
10.7924
10.8166
10.8551
10.912
10.997
11.1304
11.3425
11.8234
12.1168
11.4507
11.4554
11.4641
11.4796
11.509
11.5626
11.6472
11.7785
11.9833
12.3295
13.2047
14.3763
12.0583
12.0605
12.0685
12.0838
12.1132
12.1695
12.2627
12.4123
12.6369
13.0263
14.0026
15.8672
0.000274047
-0.111045
-0.213375
-0.282953
-0.318318
-0.303624
-0.264653
-0.201829
-0.0825343
0.107373
0.056199
-0.183307
0.671706
0.481031
0.352797
0.281254
0.273174
0.359709
0.596301
0.816417
1.36575
2.02966
2.32284
2.49315
1.36537
1.07981
0.95024
0.934948
1.03952
1.28084
1.72646
2.16411
2.56183
2.92999
3.15998
3.34127
2.2573
1.98514
1.9175
2.00493
2.28713
2.71836
3.18313
3.60486
3.97197
4.27724
4.50194
4.68263
3.26679
3.10305
3.13283
3.34517
3.72776
4.17782
4.60914
4.98631
5.31301
5.57251
5.76751
5.91787
4.33378
4.28519
4.42308
4.73035
5.14564
5.57127
5.95487
6.28023
6.5479
6.75931
6.92102
7.04458
5.39795
5.47997
5.71012
6.07484
6.48956
6.88009
7.21281
7.48403
7.69999
7.86763
7.99499
8.09097
6.45618
6.69049
6.98602
7.3746
7.76521
8.10654
8.3835
8.60056
8.76711
8.8925
8.98584
9.05491
7.52195
7.92905
8.26261
8.64322
8.98626
9.26474
9.47796
9.63624
9.75156
9.83456
9.89451
9.93789
8.62387
9.16497
9.52071
9.87192
10.152
10.3528
10.492
10.586
10.6482
10.6893
10.7177
10.7378
9.77084
10.4702
10.7838
11.0254
11.2142
11.3248
11.3859
11.4176
11.4319
11.438
11.4423
11.4457
10.7925
11.7911
11.9745
12.025
12.0921
12.112
12.1064
12.091
12.0741
12.0612
12.0559
12.0542
-0.399876
-0.534862
-0.499537
-0.332392
-0.0268749
0.376666
0.867232
1.37286
1.82958
2.1769
2.32787
2.20002
2.5805
2.64956
2.68829
2.74236
2.81576
2.92282
3.03822
3.15678
3.25173
3.39825
3.35112
2.6933
3.45948
3.54539
3.62027
3.70537
3.79836
3.88757
3.96689
4.00866
3.98174
3.95675
3.8132
2.8531
4.81592
4.91749
4.9955
5.05508
5.09295
5.10701
5.09217
5.01595
4.85709
4.6622
4.38819
3.15586
6.02696
6.10481
6.15719
6.18765
6.19494
6.17463
6.11576
6.00401
5.80959
5.53048
5.19866
3.76429
7.13476
7.19786
7.23757
7.25569
7.25113
7.22003
7.15216
7.03453
6.84295
6.5536
6.20695
4.77976
8.16067
8.20871
8.23816
8.25056
8.24556
8.22067
8.16965
8.08177
7.93811
7.71363
7.43697
6.1526
9.10487
9.13955
9.16201
9.17423
9.17712
9.17026
9.15104
9.11426
9.05195
8.94478
8.82754
7.87825
9.96944
9.992
10.0089
10.023
10.0371
10.0534
10.0728
10.0977
10.1347
10.1839
10.312
9.88818
10.7534
10.7654
10.7774
10.7925
10.8167
10.8553
10.9122
10.9972
11.1306
11.3427
11.8237
12.1171
11.4508
11.4555
11.4642
11.4797
11.5091
11.5627
11.6474
11.7786
11.9834
12.3297
13.2049
14.3765
12.0584
12.0606
12.0686
12.0839
12.1133
12.1697
12.2628
12.4124
12.637
13.0264
14.0028
15.8673
0.000126868
-0.111228
-0.213615
-0.283218
-0.318603
-0.30393
-0.264937
-0.202202
-0.0829871
0.107091
0.0561578
-0.183295
0.671491
0.480732
0.352425
0.280821
0.272726
0.359178
0.595692
0.815901
1.36478
2.02904
2.32261
2.49292
1.36511
1.0794
0.949711
0.934322
1.0388
1.28
1.72556
2.16341
2.56114
2.92947
3.15956
3.34089
2.25701
1.98463
1.91681
2.0041
2.28615
2.71739
3.18229
3.60418
3.97138
4.2768
4.50156
4.68229
3.2665
3.10254
3.1321
3.34425
3.72681
4.177
4.60848
4.98577
5.31256
5.57216
5.76721
5.91759
4.33353
4.28474
4.42244
4.7296
5.14493
5.57071
5.95441
6.27988
6.54759
6.75906
6.92078
7.04437
5.39778
5.47959
5.70961
6.0743
6.4891
6.87973
7.21254
7.48381
7.6998
7.86746
7.99483
8.0908
6.4561
6.6902
6.98567
7.37425
7.76493
8.10633
8.38334
8.60043
8.76699
8.89238
8.98572
9.05478
7.52189
7.92884
8.26236
8.64299
8.98609
9.26462
9.47787
9.63617
9.75149
9.83448
9.89442
9.93778
8.62381
9.1648
9.52053
9.87178
10.1519
10.3527
10.4919
10.5859
10.6481
10.6892
10.7176
10.7377
9.77077
10.47
10.7837
11.0253
11.2141
11.3248
11.3859
11.4176
11.4319
11.438
11.4423
11.4456
10.7925
11.791
11.9745
12.025
12.092
12.112
12.1064
12.091
12.0741
12.0612
12.0558
12.0542
-0.399907
-0.535053
-0.499797
-0.332732
-0.027221
0.376309
0.866923
1.37259
1.82938
2.17675
2.32778
2.1999
2.58027
2.64935
2.68805
2.7421
2.81549
2.92256
3.03797
3.15657
3.25154
3.39812
3.35101
2.69314
3.45917
3.5451
3.61999
3.7051
3.79809
3.8873
3.96665
4.00843
3.98153
3.95655
3.81301
2.85285
4.81562
4.91721
4.99523
5.05482
5.0927
5.10676
5.09192
5.01571
4.85685
4.66195
4.38795
3.15555
6.02672
6.10456
6.15695
6.18742
6.1947
6.17439
6.11552
6.00377
5.80933
5.53022
5.19839
3.76395
7.13455
7.19765
7.23736
7.25548
7.25091
7.21981
7.15193
7.03429
6.8427
6.55332
6.20667
4.77941
8.1605
8.20854
8.23798
8.25037
8.24536
8.22046
8.16944
8.08155
7.93787
7.71337
7.43669
6.15226
9.10473
9.1394
9.16185
9.17406
9.17694
9.17007
9.15085
9.11406
9.05173
8.94453
8.82728
7.87794
9.96932
9.99187
10.0087
10.0228
10.037
10.0532
10.0726
10.0975
10.1345
10.1837
10.3118
9.8879
10.7533
10.7652
10.7772
10.7924
10.8165
10.8551
10.912
10.997
11.1304
11.3425
11.8235
12.1168
11.4507
11.4554
11.4641
11.4795
11.509
11.5626
11.6472
11.7785
11.9833
12.3295
13.2047
14.3764
12.0583
12.0605
12.0685
12.0838
12.1131
12.1695
12.2626
12.4122
12.6368
13.0263
14.0026
15.8672
12.8427
12.9939
12.8788
12.7617
12.7087
12.6641
12.621
12.5843
12.5604
12.5499
12.5537
12.5623
13.227
13.0841
13.0699
13.0209
12.9906
12.958
12.9254
12.9027
12.8987
12.9132
12.9459
12.981
13.4002
13.3016
13.2633
13.2022
13.1568
13.1209
13.0987
13.0988
13.1272
13.1818
13.2598
13.3374
13.5324
13.4451
13.3714
13.2909
13.2249
13.1804
13.167
13.1952
13.2708
13.3905
13.5445
13.7022
12.578
12.5835
12.594
12.6083
12.6326
12.6798
12.7614
12.8975
13.0814
13.3518
13.6719
14.6106
13.0219
13.034
13.0498
13.0598
13.072
13.0989
13.1534
13.2562
13.3876
13.5791
13.6549
13.9458
13.4141
13.429
13.4506
13.4493
13.4406
13.4361
13.4481
13.499
13.5668
13.6959
13.7008
13.7891
13.829
13.8264
13.8488
13.8228
13.7772
13.7207
13.665
13.6343
13.6172
13.6728
13.6489
13.7138
12.8427
12.9939
12.8788
12.7617
12.7088
12.6641
12.621
12.5844
12.5604
12.5499
12.5537
12.5623
13.227
13.0842
13.0699
13.021
12.9906
12.958
12.9254
12.9027
12.8987
12.9133
12.946
12.9811
13.4002
13.3016
13.2633
13.2023
13.1568
13.1209
13.0987
13.0988
13.1272
13.1819
13.2599
13.3375
13.5325
13.4451
13.3715
13.2909
13.225
13.1804
13.167
13.1953
13.2709
13.3905
13.5445
13.7022
12.5781
12.5835
12.5941
12.6083
12.6326
12.6798
12.7615
12.8975
13.0814
13.3519
13.6721
14.6108
13.022
13.0341
13.0499
13.0598
13.072
13.099
13.1535
13.2562
13.3876
13.5792
13.655
13.9459
13.4141
13.429
13.4507
13.4493
13.4406
13.4361
13.4482
13.499
13.5669
13.696
13.7009
13.7892
13.8291
13.8264
13.8488
13.8229
13.7773
13.7208
13.6651
13.6344
13.6173
13.6728
13.6489
13.7138
12.8428
12.994
12.8789
12.7618
12.7088
12.6641
12.621
12.5844
12.5604
12.5499
12.5538
12.5624
13.227
13.0842
13.0699
13.021
12.9906
12.958
12.9254
12.9027
12.8987
12.9133
12.946
12.9811
13.4002
13.3016
13.2633
13.2023
13.1568
13.1209
13.0987
13.0988
13.1272
13.1819
13.2599
13.3375
13.5325
13.4451
13.3715
13.2909
13.225
13.1803
13.1669
13.1952
13.2708
13.3905
13.5445
13.7022
12.5781
12.5836
12.5942
12.6084
12.6327
12.6799
12.7616
12.8976
13.0815
13.3519
13.6721
14.6109
13.022
13.0342
13.0499
13.0599
13.0721
13.099
13.1536
13.2563
13.3877
13.5792
13.655
13.946
13.4142
13.429
13.4507
13.4494
13.4407
13.4362
13.4482
13.4991
13.5669
13.696
13.7009
13.7892
13.8291
13.8265
13.8489
13.8229
13.7773
13.7208
13.6651
13.6344
13.6174
13.6729
13.649
13.7139
12.8427
12.9939
12.8789
12.7618
12.7088
12.6642
12.6211
12.5844
12.5605
12.55
12.5538
12.5623
13.2271
13.0843
13.07
13.0211
12.9907
12.9582
12.9255
12.9028
12.8988
12.9133
12.946
12.9811
13.4003
13.3017
13.2635
13.2024
13.1569
13.1211
13.0989
13.099
13.1273
13.182
13.26
13.3375
13.5326
13.4453
13.3716
13.2911
13.2252
13.1806
13.1672
13.1955
13.2711
13.3907
13.5447
13.7023
12.5781
12.5835
12.594
12.6083
12.6325
12.6797
12.7614
12.8975
13.0814
13.3518
13.672
14.6108
13.022
13.0341
13.0498
13.0598
13.072
13.0989
13.1534
13.2562
13.3876
13.5791
13.6549
13.9459
13.4141
13.429
13.4506
13.4493
13.4405
13.436
13.4481
13.4989
13.5668
13.6959
13.7008
13.7891
13.829
13.8264
13.8488
13.8228
13.7772
13.7206
13.6649
13.6343
13.6172
13.6728
13.6489
13.7138
13.653
13.5861
13.5088
13.4297
13.3592
13.3073
13.2856
13.305
13.3716
13.484
13.6325
13.8023
13.7693
13.71
13.6437
13.5776
13.5167
13.4675
13.4391
13.4405
13.4774
13.5501
13.6531
13.7795
13.859
13.8047
13.7453
13.6858
13.6279
13.5766
13.5396
13.5258
13.543
13.5941
13.6784
13.7906
13.9259
13.8747
13.8186
13.7606
13.7006
13.6429
13.5948
13.5662
13.5686
13.6099
13.6912
13.7533
13.9962
14.0137
14.0492
14.0266
13.9835
13.922
13.8537
13.7945
13.743
13.7411
13.6955
13.7276
14.017
14.0297
14.078
14.0727
14.0543
14.0212
13.9834
13.9491
13.9155
13.9023
13.8564
13.8426
14.1046
14.0729
14.1231
14.1258
14.1189
14.0993
14.0752
14.0505
14.0225
14.0014
13.9564
13.9254
14.3104
14.1565
14.178
14.1785
14.1742
14.1605
14.1423
14.1207
14.0939
14.0668
14.0224
13.9847
13.6531
13.5862
13.5088
13.4298
13.3592
13.3073
13.2856
13.305
13.3716
13.484
13.6326
13.8023
13.7693
13.7101
13.6438
13.5777
13.5167
13.4675
13.4392
13.4405
13.4774
13.5501
13.6532
13.7795
13.859
13.8048
13.7454
13.6859
13.6279
13.5766
13.5396
13.5258
13.543
13.5941
13.6784
13.7907
13.926
13.8748
13.8186
13.7607
13.7007
13.643
13.5948
13.5662
13.5686
13.6099
13.6912
13.7533
13.9963
14.0137
14.0493
14.0266
13.9836
13.9221
13.8538
13.7945
13.7431
13.7411
13.6955
13.7276
14.0171
14.0298
14.0781
14.0728
14.0544
14.0213
13.9834
13.9492
13.9156
13.9024
13.8564
13.8426
14.1046
14.073
14.1231
14.1259
14.119
14.0994
14.0753
14.0506
14.0226
14.0014
13.9565
13.9254
14.3105
14.1565
14.178
14.1786
14.1742
14.1605
14.1423
14.1208
14.0939
14.0669
14.0224
13.9847
13.653
13.5861
13.5088
13.4297
13.3592
13.3073
13.2856
13.305
13.3716
13.484
13.6325
13.8023
13.7693
13.7101
13.6437
13.5776
13.5167
13.4675
13.4391
13.4405
13.4774
13.5501
13.6531
13.7795
13.859
13.8048
13.7454
13.6858
13.6279
13.5766
13.5396
13.5258
13.5429
13.5941
13.6784
13.7907
13.926
13.8748
13.8186
13.7606
13.7006
13.6429
13.5948
13.5662
13.5686
13.6099
13.6912
13.7533
13.9963
14.0138
14.0493
14.0267
13.9836
13.9221
13.8538
13.7946
13.7432
13.7412
13.6956
13.7278
14.0171
14.0298
14.0782
14.0728
14.0545
14.0213
13.9835
13.9493
13.9157
13.9025
13.8565
13.8427
14.1047
14.073
14.1232
14.126
14.119
14.0995
14.0754
14.0507
14.0227
14.0015
13.9566
13.9255
14.3106
14.1566
14.1781
14.1787
14.1743
14.1606
14.1424
14.1209
14.094
14.067
14.0225
13.9848
13.6532
13.5863
13.509
13.4299
13.3594
13.3076
13.2858
13.3053
13.3719
13.4842
13.6327
13.8024
13.7694
13.7102
13.6439
13.5778
13.5169
13.4677
13.4394
13.4407
13.4776
13.5503
13.6533
13.7796
13.8592
13.8049
13.7455
13.686
13.6281
13.5768
13.5398
13.526
13.5432
13.5943
13.6785
13.7908
13.9261
13.8749
13.8188
13.7608
13.7008
13.6431
13.595
13.5664
13.5688
13.6101
13.6913
13.7534
13.9962
14.0137
14.0492
14.0265
13.9835
13.9219
13.8536
13.7944
13.743
13.741
13.6955
13.7276
14.0171
14.0298
14.078
14.0727
14.0543
14.0212
13.9833
13.9491
13.9155
13.9023
13.8563
13.8426
14.1046
14.0729
14.1231
14.1258
14.1189
14.0993
14.0752
14.0505
14.0225
14.0013
13.9564
13.9253
14.3105
14.1565
14.178
14.1785
14.1742
14.1604
14.1422
14.1207
14.0938
14.0668
14.0223
13.9846
13.9741
13.9235
13.8675
13.8073
13.7417
13.6744
13.6126
13.5668
13.549
13.561
13.6026
13.5014
14.0066
13.9547
13.8963
13.8312
13.7579
13.6797
13.6036
13.5409
13.5043
13.4927
13.5318
13.5167
14.0269
13.9725
13.9101
13.839
13.7575
13.6691
13.5813
13.5072
13.4623
13.451
13.4874
13.5085
14.0383
13.981
13.9143
13.8371
13.7487
13.6524
13.5571
13.4784
13.4343
13.4308
13.4689
13.507
14.0437
13.9836
13.913
13.8309
13.7373
13.6362
13.5379
13.46
13.4208
13.4251
13.4691
13.5164
14.0456
13.9833
13.9097
13.8241
13.7272
13.624
13.526
13.4521
13.4191
13.4311
13.4832
13.5347
14.0459
13.9821
13.9068
13.819
13.7207
13.6174
13.5215
13.4527
13.426
13.4451
13.5043
13.5583
14.0464
13.9819
13.9058
13.8174
13.7189
13.6166
13.5234
13.4597
13.4382
13.4635
13.5286
13.5833
14.0484
13.984
13.9084
13.8202
13.7225
13.6214
13.5305
13.4708
13.4525
13.4824
13.5513
13.6067
14.0538
13.991
13.917
13.8301
13.7336
13.6331
13.5425
13.4846
13.4656
13.4973
13.5683
13.6255
14.0644
14.0052
13.9345
13.85
13.7547
13.6537
13.5607
13.5008
13.4763
13.5074
13.5812
13.636
14.0748
14.0198
13.9532
13.8728
13.7804
13.6803
13.5881
13.5164
13.49
13.5187
13.5893
13.6382
14.6874
14.3307
14.2387
14.2252
14.218
14.2063
14.1907
14.1704
14.1436
14.1132
14.0693
14.0283
14.6624
14.4033
14.2822
14.2597
14.2511
14.24
14.2253
14.2049
14.1777
14.1453
14.102
14.0589
14.5974
14.3971
14.3091
14.2832
14.2753
14.2644
14.2497
14.2285
14.2004
14.1664
14.1235
14.079
14.5307
14.3759
14.3245
14.2997
14.2926
14.282
14.2667
14.2444
14.2151
14.1797
14.1368
14.091
14.4773
14.3595
14.3338
14.3116
14.3051
14.2947
14.2784
14.2548
14.2241
14.1875
14.1443
14.0974
14.4432
14.3512
14.3403
14.3211
14.3147
14.3037
14.2863
14.2613
14.2294
14.1916
14.1481
14.1003
14.4291
14.3526
14.3465
14.3292
14.3223
14.3101
14.2914
14.2652
14.2321
14.1936
14.1499
14.1015
14.4299
14.3644
14.3536
14.337
14.3281
14.3142
14.2945
14.2672
14.2333
14.1944
14.1508
14.1023
14.4408
14.3848
14.3621
14.3441
14.3316
14.316
14.2955
14.2678
14.2335
14.1947
14.1518
14.1039
14.456
14.4092
14.3722
14.3489
14.3313
14.3139
14.2935
14.2663
14.2328
14.1952
14.1539
14.1076
14.475
14.4303
14.3837
14.3513
14.3276
14.3082
14.288
14.2621
14.2308
14.1959
14.1576
14.1147
14.4946
14.4477
14.3925
14.3549
14.3267
14.3051
14.2839
14.2583
14.2289
14.1967
14.1612
14.1213
13.9741
13.9236
13.8675
13.8073
13.7417
13.6745
13.6126
13.5668
13.549
13.561
13.6026
13.5014
14.0066
13.9548
13.8963
13.8312
13.7579
13.6797
13.6036
13.541
13.5043
13.4927
13.5318
13.5167
14.0269
13.9726
13.9102
13.839
13.7576
13.6692
13.5813
13.5072
13.4623
13.4509
13.4874
13.5085
14.0384
13.981
13.9143
13.8372
13.7487
13.6524
13.5572
13.4785
13.4343
13.4308
13.4689
13.507
14.0438
13.9837
13.9131
13.831
13.7373
13.6362
13.5379
13.4601
13.4208
13.425
13.4691
13.5164
14.0456
13.9834
13.9098
13.8241
13.7273
13.6241
13.526
13.4521
13.4191
13.4311
13.4832
13.5347
14.046
13.9822
13.9069
13.8191
13.7208
13.6175
13.5215
13.4527
13.426
13.4451
13.5043
13.5583
14.0465
13.9819
13.9059
13.8174
13.719
13.6166
13.5234
13.4597
13.4382
13.4635
13.5286
13.5833
14.0485
13.9841
13.9084
13.8203
13.7226
13.6214
13.5305
13.4708
13.4525
13.4824
13.5513
13.6067
14.0539
13.9911
13.917
13.8302
13.7337
13.6331
13.5425
13.4846
13.4656
13.4973
13.5683
13.6255
14.0645
14.0053
13.9345
13.8501
13.7548
13.6537
13.5607
13.5008
13.4763
13.5074
13.5812
13.636
14.0749
14.0198
13.9533
13.8728
13.7805
13.6803
13.5881
13.5164
13.4901
13.5187
13.5893
13.6382
14.6875
14.3308
14.2387
14.2253
14.218
14.2063
14.1908
14.1704
14.1437
14.1132
14.0693
14.0283
14.6625
14.4034
14.2822
14.2597
14.2512
14.24
14.2253
14.2049
14.1778
14.1453
14.102
14.0589
14.5974
14.3972
14.3091
14.2833
14.2754
14.2644
14.2497
14.2285
14.2005
14.1665
14.1235
14.079
14.5308
14.376
14.3246
14.2997
14.2926
14.2821
14.2667
14.2444
14.2151
14.1797
14.1368
14.091
14.4773
14.3596
14.3338
14.3117
14.3052
14.2948
14.2784
14.2548
14.2242
14.1875
14.1443
14.0974
14.4433
14.3513
14.3403
14.3211
14.3148
14.3038
14.2863
14.2614
14.2294
14.1917
14.1481
14.1003
14.4292
14.3526
14.3465
14.3293
14.3224
14.3101
14.2915
14.2653
14.2322
14.1936
14.1499
14.1015
14.43
14.3645
14.3537
14.3371
14.3281
14.3143
14.2946
14.2673
14.2333
14.1944
14.1508
14.1023
14.4408
14.3849
14.3622
14.3442
14.3317
14.3161
14.2956
14.2678
14.2335
14.1947
14.1518
14.1039
14.4561
14.4093
14.3722
14.349
14.3314
14.314
14.2935
14.2663
14.2328
14.1952
14.1539
14.1076
14.475
14.4304
14.3838
14.3513
14.3276
14.3083
14.288
14.2622
14.2308
14.1959
14.1577
14.1147
14.4947
14.4477
14.3926
14.355
14.3267
14.3052
14.2839
14.2584
14.2289
14.1967
14.1612
14.1214
13.9741
13.9236
13.8675
13.8073
13.7417
13.6745
13.6126
13.5668
13.549
13.561
13.6026
13.5013
14.0067
13.9548
13.8963
13.8312
13.7579
13.6797
13.6036
13.5409
13.5043
13.4927
13.5318
13.5167
14.027
13.9726
13.9102
13.839
13.7576
13.6692
13.5813
13.5071
13.4623
13.4509
13.4874
13.5084
14.0384
13.9811
13.9143
13.8372
13.7487
13.6524
13.5571
13.4784
13.4343
13.4307
13.4689
13.5069
14.0438
13.9837
13.9131
13.831
13.7373
13.6362
13.5379
13.46
13.4208
13.425
13.4691
13.5164
14.0457
13.9834
13.9098
13.8241
13.7273
13.6241
13.526
13.4521
13.4191
13.4311
13.4832
13.5347
14.046
13.9822
13.9069
13.8191
13.7208
13.6175
13.5215
13.4527
13.426
13.4451
13.5043
13.5583
14.0465
13.9819
13.9059
13.8174
13.7189
13.6166
13.5234
13.4597
13.4381
13.4634
13.5286
13.5833
14.0485
13.9841
13.9084
13.8203
13.7226
13.6214
13.5305
13.4708
13.4524
13.4823
13.5513
13.6066
14.0539
13.9911
13.9171
13.8302
13.7337
13.6331
13.5425
13.4845
13.4655
13.4973
13.5683
13.6255
14.0645
14.0053
13.9345
13.8501
13.7548
13.6537
13.5607
13.5007
13.4763
13.5073
13.5812
13.636
14.0749
14.0198
13.9533
13.8728
13.7804
13.6803
13.5881
13.5164
13.49
13.5187
13.5893
13.6382
14.6877
14.331
14.2389
14.2254
14.2181
14.2065
14.1909
14.1705
14.1438
14.1133
14.0695
14.0284
14.6627
14.4036
14.2824
14.2599
14.2513
14.2401
14.2254
14.205
14.1779
14.1454
14.1021
14.059
14.5977
14.3974
14.3093
14.2834
14.2755
14.2646
14.2498
14.2287
14.2006
14.1666
14.1236
14.0791
14.5311
14.3761
14.3247
14.2999
14.2928
14.2822
14.2668
14.2446
14.2152
14.1798
14.1369
14.0911
14.4776
14.3598
14.334
14.3118
14.3053
14.2949
14.2786
14.2549
14.2243
14.1876
14.1444
14.0975
14.4435
14.3514
14.3405
14.3213
14.3149
14.3039
14.2865
14.2615
14.2295
14.1918
14.1482
14.1004
14.4293
14.3528
14.3467
14.3295
14.3225
14.3103
14.2916
14.2654
14.2323
14.1937
14.15
14.1016
14.4302
14.3647
14.3539
14.3372
14.3283
14.3144
14.2947
14.2674
14.2335
14.1945
14.1509
14.1024
14.441
14.385
14.3624
14.3443
14.3318
14.3162
14.2957
14.2679
14.2337
14.1948
14.1519
14.104
14.4563
14.4095
14.3724
14.3492
14.3315
14.3141
14.2937
14.2665
14.2329
14.1953
14.154
14.1077
14.4753
14.4306
14.384
14.3515
14.3278
14.3084
14.2881
14.2623
14.2309
14.196
14.1578
14.1148
14.4949
14.4479
14.3927
14.3552
14.3269
14.3053
14.284
14.2585
14.229
14.1968
14.1613
14.1214
13.9743
13.9237
13.8677
13.8075
13.7419
13.6746
13.6128
13.567
13.5492
13.5612
13.6027
13.5015
14.0068
13.9549
13.8965
13.8314
13.758
13.6799
13.6038
13.5411
13.5044
13.4928
13.5319
13.5169
14.0271
13.9727
13.9103
13.8391
13.7577
13.6693
13.5815
13.5073
13.4624
13.4511
13.4875
13.5086
14.0385
13.9812
13.9144
13.8373
13.7488
13.6526
13.5573
13.4786
13.4345
13.4309
13.469
13.5071
14.0439
13.9838
13.9132
13.8311
13.7374
13.6363
13.538
13.4602
13.421
13.4252
13.4692
13.5166
14.0457
13.9835
13.9099
13.8242
13.7274
13.6242
13.5261
13.4523
13.4193
13.4313
13.4834
13.5349
14.0461
13.9823
13.9069
13.8192
13.7209
13.6176
13.5216
13.4529
13.4262
13.4453
13.5045
13.5585
14.0466
13.982
13.906
13.8175
13.7191
13.6167
13.5235
13.4598
13.4383
13.4636
13.5288
13.5835
14.0486
13.9842
13.9085
13.8204
13.7227
13.6216
13.5306
13.471
13.4526
13.4825
13.5515
13.6068
14.054
13.9912
13.9171
13.8303
13.7338
13.6332
13.5427
13.4847
13.4657
13.4975
13.5684
13.6256
14.0646
14.0054
13.9346
13.8502
13.7549
13.6538
13.5609
13.5009
13.4765
13.5075
13.5813
13.6361
14.075
14.0199
13.9534
13.8729
13.7806
13.6804
13.5883
13.5166
13.4902
13.5189
13.5894
13.6384
14.6874
14.3308
14.2387
14.2252
14.2179
14.2063
14.1907
14.1703
14.1436
14.1131
14.0693
14.0282
14.6624
14.4033
14.2822
14.2597
14.2511
14.2399
14.2252
14.2048
14.1777
14.1452
14.1019
14.0588
14.5974
14.3971
14.3091
14.2832
14.2753
14.2644
14.2496
14.2285
14.2004
14.1664
14.1234
14.0789
14.5308
14.3759
14.3245
14.2996
14.2926
14.282
14.2666
14.2443
14.215
14.1796
14.1367
14.0909
14.4773
14.3595
14.3338
14.3116
14.3051
14.2947
14.2783
14.2547
14.2241
14.1874
14.1442
14.0974
14.4433
14.3512
14.3403
14.3211
14.3147
14.3037
14.2863
14.2613
14.2293
14.1916
14.148
14.1002
14.4291
14.3526
14.3465
14.3292
14.3223
14.31
14.2914
14.2652
14.2321
14.1935
14.1498
14.1014
14.4299
14.3644
14.3536
14.337
14.328
14.3142
14.2945
14.2672
14.2333
14.1943
14.1507
14.1022
14.4408
14.3848
14.3621
14.3441
14.3316
14.316
14.2955
14.2677
14.2335
14.1946
14.1517
14.1038
14.4561
14.4093
14.3722
14.3489
14.3313
14.3139
14.2934
14.2662
14.2327
14.1951
14.1538
14.1075
14.475
14.4303
14.3837
14.3513
14.3276
14.3082
14.2879
14.2621
14.2307
14.1958
14.1575
14.1146
14.4947
14.4477
14.3925
14.3549
14.3267
14.3051
14.2838
14.2583
14.2288
14.1966
14.1611
14.1212
)
;

boundaryField
{
    rotor
    {
        type            zeroGradient;
    }
    stator
    {
        type            zeroGradient;
    }
    front
    {
        type            empty;
    }
    back
    {
        type            empty;
    }
}


// ************************************************************************* //
