/*--------------------------------*- C++ -*----------------------------------*\
| =========                 |                                                 |
| \\      /  F ield         | OpenFOAM: The Open Source CFD Toolbox           |
|  \\    /   O peration     | Version:  4.0                                   |
|   \\  /    A nd           | Web:      www.OpenFOAM.org                      |
|    \\/     M anipulation  |                                                 |
\*---------------------------------------------------------------------------*/
FoamFile
{
    version     2.0;
    format      ascii;
    class       surfaceScalarField;
    location    "450";
    object      phi;
}
// * * * * * * * * * * * * * * * * * * * * * * * * * * * * * * * * * * * * * //

dimensions      [0 3 -1 0 0 0 0];

internalField   nonuniform List<scalar> 
5952
(
5.13951e-06
-5.14623e-06
8.74873e-06
-3.60937e-06
1.14852e-05
-2.73606e-06
1.29911e-05
-1.50556e-06
1.31616e-05
-1.70084e-07
1.15637e-05
1.59909e-06
7.22473e-06
4.33899e-06
9.20002e-07
6.30581e-06
-1.19418e-05
1.28614e-05
-2.6416e-05
1.44742e-05
-3.72299e-05
1.08136e-05
8.43679e-06
-4.5667e-05
1.58562e-06
-6.73178e-06
3.93903e-06
-5.96304e-06
4.16455e-06
-2.96108e-06
2.46412e-06
1.95542e-07
-1.54145e-06
3.83634e-06
-9.22989e-06
9.28815e-06
-2.06752e-05
1.57845e-05
-3.26726e-05
1.83034e-05
-3.84817e-05
1.86704e-05
-4.07409e-05
1.67334e-05
-4.3157e-05
1.32296e-05
1.0445e-05
-4.51654e-05
1.27889e-06
-8.01075e-06
9.9216e-07
-5.67634e-06
-1.22718e-06
-7.41426e-07
-6.33166e-06
5.30049e-06
-1.49423e-05
1.24473e-05
-2.42976e-05
1.86438e-05
-2.99677e-05
2.14548e-05
-3.29922e-05
2.1328e-05
-3.41898e-05
1.98681e-05
-3.46398e-05
1.71834e-05
-3.54203e-05
1.401e-05
1.11066e-05
-3.6082e-05
-1.71945e-06
-6.29133e-06
-4.68903e-06
-2.70663e-06
-9.3994e-06
3.96922e-06
-1.5809e-05
1.17104e-05
-2.18236e-05
1.84622e-05
-2.54455e-05
2.22658e-05
-2.68956e-05
2.2905e-05
-2.7289e-05
2.17215e-05
-2.72236e-05
1.98026e-05
-2.71218e-05
1.70815e-05
-2.71967e-05
1.40848e-05
1.11695e-05
-2.72595e-05
-3.65364e-06
-2.63751e-06
-8.54322e-06
2.18315e-06
-1.35798e-05
9.00604e-06
-1.78946e-05
1.60256e-05
-2.04237e-05
2.09915e-05
-2.10158e-05
2.28582e-05
-2.06367e-05
2.2526e-05
-1.99503e-05
2.10351e-05
-1.90907e-05
1.8943e-05
-1.84104e-05
1.64011e-05
-1.79724e-05
1.36467e-05
1.08633e-05
-1.76663e-05
-4.85122e-06
2.2139e-06
-9.74219e-06
7.07447e-06
-1.35485e-05
1.28127e-05
-1.55822e-05
1.80597e-05
-1.57619e-05
2.11715e-05
-1.48e-05
2.18966e-05
-1.34236e-05
2.11497e-05
-1.20116e-05
1.96232e-05
-1.07219e-05
1.76534e-05
-9.68813e-06
1.53673e-05
-8.93133e-06
1.28899e-05
1.03197e-05
-8.38774e-06
-5.20372e-06
7.41821e-06
-9.31817e-06
1.11893e-05
-1.15686e-05
1.50635e-05
-1.17171e-05
1.82086e-05
-1.03244e-05
1.97791e-05
-8.29331e-06
1.98657e-05
-6.17299e-06
1.90295e-05
-4.21417e-06
1.76645e-05
-2.52506e-06
1.59643e-05
-1.16217e-06
1.40044e-05
-1.21595e-07
1.18493e-05
9.55275e-06
6.45299e-07
-5.18294e-06
1.26014e-05
-8.20887e-06
1.42154e-05
-8.8296e-06
1.56845e-05
-7.4041e-06
1.67833e-05
-4.83109e-06
1.72063e-05
-1.92298e-06
1.69577e-05
8.79464e-07
1.62272e-05
3.37743e-06
1.51666e-05
5.49456e-06
1.38472e-05
7.21063e-06
1.22884e-05
8.54893e-06
1.0511e-05
8.54374e-06
9.55793e-06
-4.59149e-06
1.71932e-05
-6.36877e-06
1.59928e-05
-5.26108e-06
1.45768e-05
-2.44086e-06
1.39631e-05
1.16914e-06
1.35963e-05
4.86829e-06
1.32586e-05
8.28851e-06
1.2807e-05
1.12753e-05
1.21798e-05
1.37822e-05
1.13403e-05
1.58156e-05
1.0255e-05
1.74184e-05
8.90824e-06
7.31553e-06
1.86466e-05
-4.04378e-06
2.12369e-05
-3.06871e-06
1.50177e-05
5.32898e-07
1.09752e-05
4.84227e-06
9.65368e-06
9.33458e-06
9.104e-06
1.35715e-05
9.02163e-06
1.73267e-05
9.05181e-06
2.05276e-05
8.97898e-06
2.31786e-05
8.68924e-06
2.53188e-05
8.11487e-06
2.70131e-05
7.2139e-06
6.00281e-06
2.83258e-05
5.68851e-07
2.06681e-05
6.08749e-06
9.49908e-06
1.19595e-05
5.10322e-06
1.7298e-05
4.31511e-06
2.19856e-05
4.41635e-06
2.60082e-05
4.99907e-06
2.94047e-05
5.65533e-06
3.22239e-05
6.15976e-06
3.45244e-05
6.3888e-06
3.63672e-05
6.27205e-06
3.78301e-05
5.75103e-06
4.85809e-06
3.89748e-05
2.04075e-05
2.60507e-07
2.86898e-05
1.21679e-06
3.37481e-05
4.48396e-08
3.76068e-05
4.56386e-07
4.05791e-05
1.44401e-06
4.30132e-05
2.56506e-06
4.50502e-05
3.6183e-06
4.67345e-05
4.47545e-06
4.80994e-05
5.024e-06
4.91789e-05
5.1925e-06
5.00389e-05
4.89109e-06
5.07237e-05
4.1733e-06
-5.15712e-05
5.90404e-06
-5.55294e-05
3.95804e-06
-5.73531e-05
1.82358e-06
-5.7401e-05
4.78657e-08
-5.56403e-05
-1.76072e-06
-5.21687e-05
-3.47161e-06
-4.67203e-05
-5.44839e-06
-3.93311e-05
-7.38924e-06
-2.9802e-05
-9.52905e-06
-1.83762e-05
-1.14257e-05
-6.99418e-06
-1.1382e-05
-6.99416e-06
-4.68144e-05
7.55296e-06
-4.76426e-05
4.78613e-06
-4.79533e-05
2.13422e-06
-4.75496e-05
-3.55883e-07
-4.6467e-05
-2.84332e-06
-4.44273e-05
-5.5113e-06
-4.14229e-05
-8.45276e-06
-3.7075e-05
-1.17371e-05
-3.12218e-05
-1.53822e-05
-2.35522e-05
-1.90954e-05
-1.31254e-05
-2.18088e-05
-2.01195e-05
-3.6687e-05
8.15791e-06
-3.71607e-05
5.2597e-06
-3.74091e-05
2.38264e-06
-3.72413e-05
-5.23781e-07
-3.65018e-05
-3.58277e-06
-3.5124e-05
-6.88907e-06
-3.30029e-05
-1.05739e-05
-3.00073e-05
-1.47327e-05
-2.60509e-05
-1.93386e-05
-2.0654e-05
-2.44922e-05
-1.28005e-05
-2.96624e-05
-3.292e-05
-2.73179e-05
8.21624e-06
-2.73137e-05
5.25541e-06
-2.71845e-05
2.25342e-06
-2.68539e-05
-8.54394e-07
-2.62588e-05
-4.17791e-06
-2.53266e-05
-7.8212e-06
-2.39643e-05
-1.19362e-05
-2.20437e-05
-1.66532e-05
-1.93507e-05
-2.20316e-05
-1.53948e-05
-2.84481e-05
-9.41186e-06
-3.56452e-05
-4.23318e-05
-1.74685e-05
8.01845e-06
-1.73273e-05
5.11419e-06
-1.71874e-05
2.11346e-06
-1.6992e-05
-1.04986e-06
-1.66965e-05
-4.47334e-06
-1.625e-05
-8.26771e-06
-1.55933e-05
-1.2593e-05
-1.46614e-05
-1.7585e-05
-1.32512e-05
-2.34418e-05
-1.11422e-05
-3.05571e-05
-7.44619e-06
-3.93412e-05
-4.9778e-05
-8.02164e-06
7.65233e-06
-7.78937e-06
4.88188e-06
-7.64966e-06
1.97373e-06
-7.56755e-06
-1.13199e-06
-7.51868e-06
-4.52221e-06
-7.48027e-06
-8.30611e-06
-7.44664e-06
-1.26266e-05
-7.37738e-06
-1.76543e-05
-7.15754e-06
-2.36616e-05
-6.60333e-06
-3.11113e-05
-4.88172e-06
-4.10628e-05
-5.46598e-05
1.17858e-06
7.11903e-06
1.51496e-06
4.54549e-06
1.68276e-06
1.80592e-06
1.69806e-06
-1.14729e-06
1.56217e-06
-4.38632e-06
1.2633e-06
-8.00724e-06
7.74829e-07
-1.21381e-05
8.09665e-08
-1.69604e-05
-7.92939e-07
-2.27877e-05
-1.7257e-06
-3.01786e-05
-2.25257e-06
-4.0536e-05
-5.69123e-05
1.02836e-05
6.39331e-06
1.07598e-05
4.06937e-06
1.10065e-05
1.55919e-06
1.10261e-05
-1.16694e-06
1.08011e-05
-4.16128e-06
1.02902e-05
-7.49633e-06
9.42078e-06
-1.12687e-05
8.10121e-06
-1.56408e-05
6.23855e-06
-2.09251e-05
3.81582e-06
-2.77558e-05
1.21687e-06
-3.7937e-05
-5.56955e-05
1.95567e-05
5.48319e-06
2.01836e-05
3.44247e-06
2.05454e-05
1.19742e-06
2.06356e-05
-1.25716e-06
2.04226e-05
-3.94834e-06
1.98412e-05
-6.91488e-06
1.87692e-05
-1.01967e-05
1.70295e-05
-1.3901e-05
1.43767e-05
-1.82722e-05
1.05554e-05
-2.39346e-05
5.66299e-06
-3.30447e-05
-5.00325e-05
2.93269e-05
4.48212e-06
3.00511e-05
2.71831e-06
3.05186e-05
7.2984e-07
3.07187e-05
-1.45726e-06
3.06087e-05
-3.83826e-06
3.01042e-05
-6.41039e-06
2.90406e-05
-9.13299e-06
2.71627e-05
-1.20231e-05
2.40595e-05
-1.5169e-05
1.9225e-05
-1.91e-05
1.18454e-05
-2.56651e-05
-3.8187e-05
3.98858e-05
3.57118e-06
4.05873e-05
2.01679e-06
4.11029e-05
2.14202e-07
4.14192e-05
-1.77352e-06
4.14838e-05
-3.90282e-06
4.11988e-05
-6.12538e-06
4.03721e-05
-8.30617e-06
3.87048e-05
-1.03557e-05
3.56482e-05
-1.21125e-05
3.04627e-05
-1.39144e-05
2.06269e-05
-1.58293e-05
-1.75601e-05
5.13399e-05
2.95503e-06
5.18858e-05
1.47092e-06
5.23863e-05
-2.86369e-07
5.28193e-05
-2.20646e-06
5.31175e-05
-4.20097e-06
5.31716e-05
-6.17947e-06
5.27867e-05
-7.9213e-06
5.16921e-05
-9.26105e-06
4.93626e-05
-9.78297e-06
4.48613e-05
-9.41305e-06
3.45445e-05
-5.51247e-06
1.69845e-05
5.14294e-06
-5.14307e-06
8.75164e-06
-3.60873e-06
1.14873e-05
-2.73568e-06
1.29932e-05
-1.50554e-06
1.31637e-05
-1.7048e-07
1.15674e-05
1.5974e-06
7.22965e-06
4.33735e-06
9.2662e-07
6.30404e-06
-1.1933e-05
1.2859e-05
-2.64093e-05
1.44764e-05
-3.72261e-05
1.08164e-05
8.43871e-06
-4.5665e-05
1.58726e-06
-6.73046e-06
3.94163e-06
-5.96327e-06
4.16811e-06
-2.96198e-06
2.46884e-06
1.94191e-07
-1.53529e-06
3.83403e-06
-9.22154e-06
9.2841e-06
-2.06666e-05
1.57825e-05
-3.26674e-05
1.8305e-05
-3.84808e-05
1.86724e-05
-4.07412e-05
1.67367e-05
-4.31572e-05
1.32323e-05
1.0447e-05
-4.51657e-05
1.28091e-06
-8.01142e-06
9.95713e-07
-5.67813e-06
-1.22201e-06
-7.441e-07
-6.32397e-06
5.29647e-06
-1.49332e-05
1.24434e-05
-2.42917e-05
1.86428e-05
-2.99658e-05
2.14566e-05
-3.29919e-05
2.13311e-05
-3.41905e-05
1.98711e-05
-3.46407e-05
1.71867e-05
-3.54212e-05
1.40127e-05
1.11088e-05
-3.60831e-05
-1.71771e-06
-6.29364e-06
-4.68528e-06
-2.71047e-06
-9.39378e-06
3.96466e-06
-1.58034e-05
1.17064e-05
-2.18204e-05
1.84606e-05
-2.54449e-05
2.22675e-05
-2.68963e-05
2.29081e-05
-2.72901e-05
2.17249e-05
-2.72249e-05
1.98057e-05
-2.71229e-05
1.70847e-05
-2.71978e-05
1.40874e-05
1.11717e-05
-2.72607e-05
-3.65239e-06
-2.64109e-06
-8.54087e-06
2.17844e-06
-1.35775e-05
9.00153e-06
-1.78939e-05
1.6023e-05
-2.04246e-05
2.09916e-05
-2.10175e-05
2.28605e-05
-2.06383e-05
2.25291e-05
-1.99518e-05
2.10383e-05
-1.9092e-05
1.8946e-05
-1.84114e-05
1.6404e-05
-1.79733e-05
1.36492e-05
1.08654e-05
-1.76671e-05
-4.8503e-06
2.21034e-06
-9.74208e-06
7.07046e-06
-1.35494e-05
1.28094e-05
-1.55841e-05
1.80581e-05
-1.57644e-05
2.11721e-05
-1.48021e-05
2.18987e-05
-1.34253e-05
2.11523e-05
-1.20128e-05
1.9626e-05
-1.07229e-05
1.7656e-05
-9.68878e-06
1.53699e-05
-8.93186e-06
1.28922e-05
1.03216e-05
-8.38814e-06
-5.2044e-06
7.41511e-06
-9.3196e-06
1.11862e-05
-1.1571e-05
1.5061e-05
-1.172e-05
1.82074e-05
-1.0327e-05
1.97795e-05
-8.2953e-06
1.98672e-05
-6.17433e-06
1.90316e-05
-4.21504e-06
1.76668e-05
-2.52552e-06
1.59666e-05
-1.16239e-06
1.40067e-05
-1.21637e-07
1.18514e-05
9.55463e-06
6.45323e-07
-5.18404e-06
1.25996e-05
-8.21103e-06
1.42132e-05
-8.83234e-06
1.56826e-05
-7.4069e-06
1.67822e-05
-4.83343e-06
1.72063e-05
-1.92464e-06
1.69586e-05
8.78453e-07
1.62286e-05
3.37697e-06
1.51683e-05
5.49449e-06
1.38491e-05
7.21082e-06
1.22904e-05
8.54928e-06
1.0513e-05
8.54554e-06
9.55835e-06
-4.59291e-06
1.71926e-05
-6.37084e-06
1.59913e-05
-5.26352e-06
1.45752e-05
-2.44323e-06
1.3962e-05
1.1672e-06
1.35959e-05
4.86696e-06
1.32589e-05
8.2878e-06
1.28078e-05
1.12751e-05
1.2181e-05
1.37824e-05
1.13418e-05
1.58161e-05
1.02567e-05
1.7419e-05
8.91002e-06
7.31724e-06
1.86473e-05
-4.04455e-06
2.12373e-05
-3.06988e-06
1.50167e-05
5.31385e-07
1.0974e-05
4.84071e-06
9.65263e-06
9.33329e-06
9.10332e-06
1.35707e-05
9.02146e-06
1.73263e-05
9.05215e-06
2.05276e-05
8.97979e-06
2.3179e-05
8.69043e-06
2.53193e-05
8.11634e-06
2.70138e-05
7.21552e-06
6.00444e-06
2.83266e-05
5.68999e-07
2.06684e-05
6.08728e-06
9.49848e-06
1.19589e-05
5.10236e-06
1.72974e-05
4.31419e-06
2.19851e-05
4.41564e-06
2.60078e-05
4.99873e-06
2.94046e-05
5.65545e-06
3.2224e-05
6.16032e-06
3.45247e-05
6.38977e-06
3.63677e-05
6.27335e-06
3.78307e-05
5.75253e-06
4.85965e-06
3.89755e-05
2.04079e-05
2.60652e-07
2.869e-05
1.21631e-06
3.37482e-05
4.43052e-08
3.76066e-05
4.55729e-07
4.05789e-05
1.44342e-06
4.30129e-05
2.56471e-06
4.505e-05
3.61833e-06
4.67345e-05
4.4759e-06
4.80994e-05
5.02485e-06
4.91791e-05
5.19369e-06
5.00392e-05
4.8925e-06
5.0724e-05
4.17478e-06
-5.15706e-05
5.90545e-06
-5.55299e-05
3.95914e-06
-5.73543e-05
1.82428e-06
-5.74027e-05
4.83747e-08
-5.56423e-05
-1.76046e-06
-5.21709e-05
-3.4715e-06
-4.67225e-05
-5.4484e-06
-3.93331e-05
-7.38937e-06
-2.98039e-05
-9.52929e-06
-1.83778e-05
-1.14261e-05
-6.99525e-06
-1.13826e-05
-6.99527e-06
-4.68152e-05
7.55489e-06
-4.76437e-05
4.7875e-06
-4.79547e-05
2.1352e-06
-4.75512e-05
-3.55236e-07
-4.64687e-05
-2.84299e-06
-4.4429e-05
-5.5112e-06
-4.14246e-05
-8.45288e-06
-3.70765e-05
-1.17374e-05
-3.12231e-05
-1.53827e-05
-2.35532e-05
-1.90961e-05
-1.3126e-05
-2.18098e-05
-2.01213e-05
-3.66881e-05
8.1598e-06
-3.71618e-05
5.26114e-06
-3.74104e-05
2.38368e-06
-3.72426e-05
-5.23105e-07
-3.65031e-05
-3.58243e-06
-3.51254e-05
-6.88904e-06
-3.30041e-05
-1.05741e-05
-3.00084e-05
-1.47332e-05
-2.60518e-05
-1.93394e-05
-2.06545e-05
-2.44933e-05
-1.28006e-05
-2.96637e-05
-3.29219e-05
-2.7319e-05
8.21806e-06
-2.73148e-05
5.25682e-06
-2.71856e-05
2.25442e-06
-2.6855e-05
-8.53757e-07
-2.62598e-05
-4.17762e-06
-2.53276e-05
-7.82123e-06
-2.39652e-05
-1.19366e-05
-2.20446e-05
-1.66538e-05
-1.93515e-05
-2.20326e-05
-1.53954e-05
-2.84494e-05
-9.41225e-06
-3.56469e-05
-4.23342e-05
-1.74693e-05
8.02019e-06
-1.73281e-05
5.11552e-06
-1.71881e-05
2.11443e-06
-1.69927e-05
-1.04926e-06
-1.66973e-05
-4.47309e-06
-1.62507e-05
-8.26779e-06
-1.55939e-05
-1.25934e-05
-1.4662e-05
-1.75857e-05
-1.32517e-05
-2.34429e-05
-1.11425e-05
-3.05586e-05
-7.44639e-06
-3.93431e-05
-4.97806e-05
-8.02203e-06
7.65398e-06
-7.78971e-06
4.88319e-06
-7.65003e-06
1.97468e-06
-7.56792e-06
-1.13139e-06
-7.51908e-06
-4.52198e-06
-7.48066e-06
-8.30622e-06
-7.44703e-06
-1.26271e-05
-7.37774e-06
-1.76551e-05
-7.15786e-06
-2.36628e-05
-6.60363e-06
-3.11129e-05
-4.88193e-06
-4.10649e-05
-5.46626e-05
1.17864e-06
7.12063e-06
1.515e-06
4.54678e-06
1.68278e-06
1.80686e-06
1.69804e-06
-1.1467e-06
1.56212e-06
-4.38609e-06
1.26323e-06
-8.00736e-06
7.74745e-07
-1.21386e-05
8.08848e-08
-1.69612e-05
-7.93036e-07
-2.27889e-05
-1.72578e-06
-3.01802e-05
-2.25266e-06
-4.05381e-05
-5.69153e-05
1.02841e-05
6.39488e-06
1.07602e-05
4.07067e-06
1.10068e-05
1.56016e-06
1.10264e-05
-1.16632e-06
1.08014e-05
-4.16104e-06
1.02904e-05
-7.49646e-06
9.42099e-06
-1.12691e-05
8.1014e-06
-1.56416e-05
6.23872e-06
-2.09263e-05
3.81592e-06
-2.77575e-05
1.21692e-06
-3.79391e-05
-5.56984e-05
1.95574e-05
5.48474e-06
2.01842e-05
3.44378e-06
2.0546e-05
1.19842e-06
2.06362e-05
-1.25651e-06
2.04232e-05
-3.94807e-06
1.98417e-05
-6.91499e-06
1.87697e-05
-1.01971e-05
1.703e-05
-1.39019e-05
1.43771e-05
-1.82734e-05
1.05558e-05
-2.39361e-05
5.6632e-06
-3.30466e-05
-5.00351e-05
2.93277e-05
4.48364e-06
3.00518e-05
2.71962e-06
3.05194e-05
7.30856e-07
3.07195e-05
-1.4566e-06
3.06094e-05
-3.83799e-06
3.0105e-05
-6.41052e-06
2.90413e-05
-9.1335e-06
2.71634e-05
-1.20239e-05
2.40602e-05
-1.51702e-05
1.92256e-05
-1.91014e-05
1.18458e-05
-2.56668e-05
-3.81892e-05
3.98865e-05
3.57266e-06
4.0588e-05
2.01808e-06
4.11037e-05
2.15192e-07
4.142e-05
-1.77289e-06
4.14846e-05
-3.90261e-06
4.11997e-05
-6.12557e-06
4.0373e-05
-8.30675e-06
3.87058e-05
-1.03566e-05
3.56493e-05
-1.21136e-05
3.04636e-05
-1.39157e-05
2.06276e-05
-1.58307e-05
-1.75616e-05
5.13403e-05
2.95645e-06
5.18863e-05
1.47212e-06
5.2387e-05
-2.85467e-07
5.282e-05
-2.20594e-06
5.31183e-05
-4.20089e-06
5.31726e-05
-6.17981e-06
5.27879e-05
-7.92202e-06
5.16934e-05
-9.26206e-06
4.9364e-05
-9.78419e-06
4.48626e-05
-9.41434e-06
3.45455e-05
-5.51363e-06
1.69841e-05
5.14193e-06
-5.14173e-06
8.7496e-06
-3.60742e-06
1.14845e-05
-2.73452e-06
1.29899e-05
-1.50472e-06
1.31599e-05
-1.69475e-07
1.15603e-05
1.60135e-06
7.21857e-06
4.34191e-06
9.11342e-07
6.30883e-06
-1.19544e-05
1.28653e-05
-2.64259e-05
1.44716e-05
-3.72361e-05
1.08097e-05
8.43444e-06
-4.56708e-05
1.58547e-06
-6.7271e-06
3.93746e-06
-5.95948e-06
4.16169e-06
-2.95829e-06
2.46004e-06
1.97805e-07
-1.54793e-06
3.83935e-06
-9.23946e-06
9.29362e-06
-2.06852e-05
1.57879e-05
-3.26779e-05
1.83018e-05
-3.84812e-05
1.86685e-05
-4.07392e-05
1.67295e-05
-4.31561e-05
1.32264e-05
1.04428e-05
-4.51647e-05
1.27914e-06
-8.00637e-06
9.91304e-07
-5.67167e-06
-1.22976e-06
-7.36984e-07
-6.3373e-06
5.30582e-06
-1.49502e-05
1.24526e-05
-2.43023e-05
1.8646e-05
-2.99677e-05
2.14534e-05
-3.29906e-05
2.13248e-05
-3.41872e-05
1.9865e-05
-3.46374e-05
1.71796e-05
-3.54182e-05
1.40071e-05
1.11044e-05
-3.608e-05
-1.7195e-06
-6.28694e-06
-4.69036e-06
-2.70073e-06
-9.40264e-06
3.97554e-06
-1.58126e-05
1.17161e-05
-2.18249e-05
1.84652e-05
-2.54436e-05
2.2265e-05
-2.68924e-05
2.29022e-05
-2.72857e-05
2.17182e-05
-2.72202e-05
1.97995e-05
-2.71189e-05
1.70783e-05
-2.71941e-05
1.40822e-05
1.11674e-05
-2.72573e-05
-3.65384e-06
-2.63298e-06
-8.54403e-06
2.18968e-06
-1.35803e-05
9.01217e-06
-1.78936e-05
1.60297e-05
-2.04205e-05
2.09924e-05
-2.10118e-05
2.28566e-05
-2.06327e-05
2.25233e-05
-1.99465e-05
2.10321e-05
-1.90873e-05
1.89402e-05
-1.84076e-05
1.63985e-05
-1.797e-05
1.36446e-05
1.08616e-05
-1.76642e-05
-4.85158e-06
2.21895e-06
-9.74149e-06
7.07999e-06
-1.35464e-05
1.28175e-05
-1.55787e-05
1.80624e-05
-1.57576e-05
2.11718e-05
-1.47958e-05
2.1895e-05
-1.34197e-05
2.11475e-05
-1.20083e-05
1.96208e-05
-1.07191e-05
1.76511e-05
-9.68576e-06
1.53652e-05
-8.92935e-06
1.28882e-05
1.03183e-05
-8.38608e-06
-5.20286e-06
7.42249e-06
-9.31615e-06
1.11937e-05
-1.15653e-05
1.50671e-05
-1.1713e-05
1.82105e-05
-1.03202e-05
1.97792e-05
-8.28947e-06
1.98646e-05
-6.16968e-06
1.90278e-05
-4.21136e-06
1.76626e-05
-2.52268e-06
1.59624e-05
-1.1602e-06
1.40028e-05
-1.19967e-07
1.18479e-05
9.55162e-06
6.4667e-07
-5.18172e-06
1.26045e-05
-8.20637e-06
1.42186e-05
-8.82613e-06
1.56871e-05
-7.40021e-06
1.67848e-05
-4.82732e-06
1.72065e-05
-1.9196e-06
1.6957e-05
8.82373e-07
1.62259e-05
3.37989e-06
1.51651e-05
5.49664e-06
1.38457e-05
7.21235e-06
1.22871e-05
8.55038e-06
1.05099e-05
8.54284e-06
9.55916e-06
-4.59008e-06
1.71949e-05
-6.36626e-06
1.5995e-05
-5.25784e-06
1.45787e-05
-2.43728e-06
1.39643e-05
1.17264e-06
1.35966e-05
4.87147e-06
1.32581e-05
8.2913e-06
1.28061e-05
1.12777e-05
1.21788e-05
1.37843e-05
1.13392e-05
1.58173e-05
1.0254e-05
1.74199e-05
8.90738e-06
7.31485e-06
1.86479e-05
-4.04265e-06
2.12376e-05
-3.06673e-06
1.5019e-05
5.35696e-07
1.09763e-05
4.84552e-06
9.6544e-06
9.33789e-06
9.10417e-06
1.35747e-05
9.02131e-06
1.73296e-05
9.05116e-06
2.05301e-05
8.97818e-06
2.31808e-05
8.68843e-06
2.53207e-05
8.11415e-06
2.70148e-05
7.21332e-06
6.00237e-06
2.83273e-05
5.6944e-07
2.06682e-05
6.08922e-06
9.49925e-06
1.1962e-05
5.10348e-06
1.7301e-05
4.31532e-06
2.19888e-05
4.41632e-06
2.60113e-05
4.99876e-06
2.94076e-05
5.65483e-06
3.22266e-05
6.15919e-06
3.45268e-05
6.38827e-06
3.63693e-05
6.27163e-06
3.78319e-05
5.75074e-06
4.85793e-06
3.89764e-05
2.04087e-05
2.59427e-07
2.86918e-05
1.21616e-06
3.37506e-05
4.46128e-08
3.76096e-05
4.56221e-07
4.05821e-05
1.44376e-06
4.30162e-05
2.5647e-06
4.50531e-05
3.61788e-06
4.67372e-05
4.47508e-06
4.81018e-05
5.02373e-06
4.9181e-05
5.19239e-06
5.00407e-05
4.8911e-06
5.07253e-05
4.17342e-06
-5.15734e-05
5.90229e-06
-5.55304e-05
3.95673e-06
-5.73535e-05
1.82283e-06
-5.74009e-05
4.72524e-08
-5.564e-05
-1.76101e-06
-5.21683e-05
-3.47179e-06
-4.672e-05
-5.44841e-06
-3.93308e-05
-7.38916e-06
-2.9802e-05
-9.5289e-06
-1.83765e-05
-1.14255e-05
-6.99469e-06
-1.1382e-05
-6.99474e-06
-4.68134e-05
7.55077e-06
-4.76415e-05
4.7847e-06
-4.79521e-05
2.13324e-06
-4.75485e-05
-3.5652e-07
-4.64659e-05
-2.84365e-06
-4.44264e-05
-5.51142e-06
-4.14221e-05
-8.45273e-06
-3.70744e-05
-1.17369e-05
-3.12214e-05
-1.53819e-05
-2.3552e-05
-1.9095e-05
-1.31254e-05
-2.18086e-05
-2.01202e-05
-3.66854e-05
8.15604e-06
-3.71592e-05
5.25833e-06
-3.74077e-05
2.38168e-06
-3.724e-05
-5.2437e-07
-3.65007e-05
-3.58302e-06
-3.51231e-05
-6.88909e-06
-3.30021e-05
-1.05737e-05
-3.00067e-05
-1.47324e-05
-2.60504e-05
-1.93383e-05
-2.06535e-05
-2.44919e-05
-1.28e-05
-2.96622e-05
-3.29202e-05
-2.73159e-05
8.21462e-06
-2.73119e-05
5.25425e-06
-2.7183e-05
2.25268e-06
-2.68527e-05
-8.54793e-07
-2.62577e-05
-4.17802e-06
-2.53257e-05
-7.8211e-06
-2.39636e-05
-1.19359e-05
-2.20432e-05
-1.66528e-05
-1.93503e-05
-2.20312e-05
-1.53946e-05
-2.84477e-05
-9.41179e-06
-3.56449e-05
-4.2332e-05
-1.74668e-05
8.01713e-06
-1.73259e-05
5.11326e-06
-1.71862e-05
2.11289e-06
-1.69909e-05
-1.05012e-06
-1.66956e-05
-4.47336e-06
-1.62492e-05
-8.26751e-06
-1.55926e-05
-1.25926e-05
-1.46609e-05
-1.75845e-05
-1.32508e-05
-2.34413e-05
-1.11419e-05
-3.05566e-05
-7.44603e-06
-3.93409e-05
-4.9778e-05
-8.02025e-06
7.65127e-06
-7.78819e-06
4.88115e-06
-7.64863e-06
1.9733e-06
-7.56663e-06
-1.13217e-06
-7.51786e-06
-4.52217e-06
-7.47952e-06
-8.30588e-06
-7.44596e-06
-1.26262e-05
-7.37681e-06
-1.76537e-05
-7.15712e-06
-2.3661e-05
-6.60306e-06
-3.11107e-05
-4.88161e-06
-4.10624e-05
-5.46597e-05
1.17974e-06
7.11818e-06
1.51595e-06
4.54491e-06
1.68364e-06
1.80557e-06
1.69888e-06
-1.14743e-06
1.56294e-06
-4.38627e-06
1.26404e-06
-8.00701e-06
7.75532e-07
-1.21377e-05
8.15923e-08
-1.69598e-05
-7.92426e-07
-2.2787e-05
-1.72536e-06
-3.01779e-05
-2.25237e-06
-4.05355e-05
-5.69121e-05
1.02847e-05
6.39263e-06
1.07607e-05
4.06891e-06
1.10073e-05
1.55892e-06
1.10269e-05
-1.16705e-06
1.08019e-05
-4.16125e-06
1.0291e-05
-7.49614e-06
9.42155e-06
-1.12683e-05
8.10194e-06
-1.56402e-05
6.23917e-06
-2.09243e-05
3.81626e-06
-2.7755e-05
1.21712e-06
-3.79363e-05
-5.5695e-05
1.95578e-05
5.48269e-06
2.01845e-05
3.44214e-06
2.05462e-05
1.19723e-06
2.06364e-05
-1.25723e-06
2.04235e-05
-3.94832e-06
1.9842e-05
-6.91473e-06
1.87701e-05
-1.01963e-05
1.70303e-05
-1.39004e-05
1.43775e-05
-1.82714e-05
1.0556e-05
-2.39335e-05
5.66334e-06
-3.30437e-05
-5.00317e-05
2.93281e-05
4.48182e-06
3.00521e-05
2.71813e-06
3.05196e-05
7.29758e-07
3.07196e-05
-1.45728e-06
3.06096e-05
-3.83824e-06
3.01051e-05
-6.41028e-06
2.90415e-05
-9.1327e-06
2.71636e-05
-1.20225e-05
2.40604e-05
-1.51682e-05
1.92257e-05
-1.90989e-05
1.18459e-05
-2.56638e-05
-3.81858e-05
3.98871e-05
3.57111e-06
4.05885e-05
2.01677e-06
4.1104e-05
2.14228e-07
4.14202e-05
-1.77349e-06
4.14848e-05
-3.90279e-06
4.11998e-05
-6.12529e-06
4.03731e-05
-8.30592e-06
3.87058e-05
-1.03552e-05
3.56493e-05
-1.21116e-05
3.04636e-05
-1.39132e-05
2.06276e-05
-1.58278e-05
-1.75582e-05
5.13412e-05
2.95518e-06
5.18869e-05
1.47105e-06
5.23874e-05
-2.86258e-07
5.28204e-05
-2.20639e-06
5.31185e-05
-4.20094e-06
5.31726e-05
-6.17939e-06
5.27878e-05
-7.92105e-06
5.16931e-05
-9.26047e-06
4.93636e-05
-9.78203e-06
4.48622e-05
-9.4118e-06
3.45452e-05
-5.51073e-06
1.6987e-05
5.14289e-06
-5.143e-06
8.75146e-06
-3.60859e-06
1.14871e-05
-2.73556e-06
1.29928e-05
-1.5054e-06
1.3163e-05
-1.70238e-07
1.15656e-05
1.59857e-06
7.22638e-06
4.33884e-06
9.21408e-07
6.30601e-06
-1.1941e-05
1.28619e-05
-2.64165e-05
1.44755e-05
-3.72313e-05
1.08145e-05
8.43752e-06
-4.5669e-05
1.58707e-06
-6.73018e-06
3.941e-06
-5.96268e-06
4.16686e-06
-2.96123e-06
2.46674e-06
1.95204e-07
-1.53897e-06
3.83587e-06
-9.22746e-06
9.28752e-06
-2.06734e-05
1.57849e-05
-3.26722e-05
1.83049e-05
-3.84824e-05
1.86721e-05
-4.0742e-05
1.6735e-05
-4.31585e-05
1.32308e-05
1.04459e-05
-4.5167e-05
1.28048e-06
-8.01071e-06
9.94621e-07
-5.67687e-06
-1.22411e-06
-7.42331e-07
-6.32784e-06
5.29926e-06
-1.49384e-05
1.24466e-05
-2.42954e-05
1.86448e-05
-2.99674e-05
2.1457e-05
-3.29927e-05
2.13303e-05
-3.41908e-05
1.98701e-05
-3.4641e-05
1.71851e-05
-3.54217e-05
1.40113e-05
1.11077e-05
-3.60835e-05
-1.71817e-06
-6.29245e-06
-4.68653e-06
-2.7084e-06
-9.39602e-06
3.96742e-06
-1.58059e-05
1.17094e-05
-2.18221e-05
1.84629e-05
-2.54454e-05
2.22683e-05
-2.68962e-05
2.29078e-05
-2.72899e-05
2.1724e-05
-2.72246e-05
1.98047e-05
-2.71229e-05
1.70833e-05
-2.71979e-05
1.40862e-05
1.11705e-05
-2.72608e-05
-3.65267e-06
-2.63962e-06
-8.54149e-06
2.18086e-06
-1.35782e-05
9.00436e-06
-1.78941e-05
1.60256e-05
-2.04242e-05
2.09933e-05
-2.10168e-05
2.2861e-05
-2.06376e-05
2.25289e-05
-1.99512e-05
2.10375e-05
-1.90916e-05
1.89451e-05
-1.84113e-05
1.64029e-05
-1.79733e-05
1.36481e-05
1.08643e-05
-1.76672e-05
-4.85044e-06
2.21201e-06
-9.74193e-06
7.07259e-06
-1.35489e-05
1.28119e-05
-1.55832e-05
1.80604e-05
-1.57632e-05
2.11736e-05
-1.4801e-05
2.18992e-05
-1.34244e-05
2.11523e-05
-1.20122e-05
1.96255e-05
-1.07225e-05
1.76553e-05
-9.68855e-06
1.5369e-05
-8.93177e-06
1.28912e-05
1.03207e-05
-8.38813e-06
-5.20408e-06
7.41648e-06
-9.31896e-06
1.1188e-05
-1.157e-05
1.50631e-05
-1.17187e-05
1.82094e-05
-1.03256e-05
1.9781e-05
-8.29411e-06
1.98679e-05
-6.17338e-06
1.90318e-05
-4.21435e-06
1.76665e-05
-2.52504e-06
1.59661e-05
-1.16209e-06
1.4006e-05
-1.21454e-07
1.18506e-05
9.55374e-06
6.45441e-07
-5.18359e-06
1.26005e-05
-8.21023e-06
1.42148e-05
-8.83122e-06
1.56844e-05
-7.40553e-06
1.67839e-05
-4.83202e-06
1.72076e-05
-1.92339e-06
1.69594e-05
8.79475e-07
1.6229e-05
3.37774e-06
1.51684e-05
5.49507e-06
1.38488e-05
7.21123e-06
1.22898e-05
8.54959e-06
1.05122e-05
8.5447e-06
9.55861e-06
-4.59253e-06
1.71931e-05
-6.37015e-06
1.59925e-05
-5.26249e-06
1.45767e-05
-2.44196e-06
1.39635e-05
1.16853e-06
1.35972e-05
4.86818e-06
1.32598e-05
8.28883e-06
1.28084e-05
1.12759e-05
1.21813e-05
1.3783e-05
1.13417e-05
1.58166e-05
1.02563e-05
1.74194e-05
8.90938e-06
7.31644e-06
1.86477e-05
-4.04442e-06
2.12378e-05
-3.06953e-06
1.50177e-05
5.32057e-07
1.09752e-05
4.84162e-06
9.65389e-06
9.33429e-06
9.10455e-06
1.35717e-05
9.0225e-06
1.73272e-05
9.05289e-06
2.05283e-05
8.98017e-06
2.31796e-05
8.69044e-06
2.53199e-05
8.11602e-06
2.70143e-05
7.21493e-06
6.00365e-06
2.83271e-05
5.68882e-07
2.0669e-05
6.08732e-06
9.49931e-06
1.19592e-05
5.10334e-06
1.72977e-05
4.31532e-06
2.19855e-05
4.41681e-06
2.60083e-05
4.99978e-06
2.94049e-05
5.65622e-06
3.22244e-05
6.16074e-06
3.4525e-05
6.38981e-06
3.6368e-05
6.27302e-06
3.78311e-05
5.7519e-06
4.85881e-06
3.89759e-05
2.04076e-05
2.61489e-07
2.86896e-05
1.21729e-06
3.37477e-05
4.53289e-08
3.76062e-05
4.56865e-07
4.05784e-05
1.44456e-06
4.30125e-05
2.56572e-06
4.50497e-05
3.61905e-06
4.67342e-05
4.47625e-06
4.80993e-05
5.0248e-06
4.91791e-05
5.19324e-06
5.00393e-05
4.89173e-06
5.07243e-05
4.17379e-06
-5.15736e-05
5.90448e-06
-5.55321e-05
3.95836e-06
-5.7356e-05
1.82373e-06
-5.74039e-05
4.78985e-08
-5.56432e-05
-1.76079e-06
-5.21715e-05
-3.47175e-06
-4.67229e-05
-5.44858e-06
-3.93335e-05
-7.38948e-06
-2.98042e-05
-9.52934e-06
-1.83781e-05
-1.14261e-05
-6.99553e-06
-1.13826e-05
-6.99555e-06
-4.68163e-05
7.55364e-06
-4.76446e-05
4.78657e-06
-4.79554e-05
2.13445e-06
-4.75517e-05
-3.55846e-07
-4.64691e-05
-2.84345e-06
-4.44293e-05
-5.51157e-06
-4.14247e-05
-8.45316e-06
-3.70766e-05
-1.17376e-05
-3.12231e-05
-1.53828e-05
-2.35532e-05
-1.90961e-05
-1.3126e-05
-2.18098e-05
-2.01216e-05
-3.66886e-05
8.15867e-06
-3.71623e-05
5.26017e-06
-3.74108e-05
2.38285e-06
-3.72429e-05
-5.23803e-07
-3.65034e-05
-3.58299e-06
-3.51255e-05
-6.88949e-06
-3.30042e-05
-1.05745e-05
-3.00084e-05
-1.47334e-05
-2.60517e-05
-1.93396e-05
-2.06544e-05
-2.44934e-05
-1.28004e-05
-2.96638e-05
-3.2922e-05
-2.73192e-05
8.21699e-06
-2.7315e-05
5.25587e-06
-2.71858e-05
2.25359e-06
-2.68552e-05
-8.54474e-07
-2.626e-05
-4.17823e-06
-2.53277e-05
-7.82176e-06
-2.39652e-05
-1.1937e-05
-2.20445e-05
-1.66541e-05
-1.93514e-05
-2.20328e-05
-1.53953e-05
-2.84494e-05
-9.41219e-06
-3.56469e-05
-4.23342e-05
-1.74694e-05
8.0192e-06
-1.73283e-05
5.1146e-06
-1.71883e-05
2.1136e-06
-1.69928e-05
-1.05e-06
-1.66973e-05
-4.47375e-06
-1.62507e-05
-8.26837e-06
-1.55939e-05
-1.25939e-05
-1.46619e-05
-1.75861e-05
-1.32515e-05
-2.34431e-05
-1.11423e-05
-3.05587e-05
-7.44622e-06
-3.93431e-05
-4.97805e-05
-8.02206e-06
7.65303e-06
-7.78976e-06
4.88229e-06
-7.65006e-06
1.97383e-06
-7.56791e-06
-1.13218e-06
-7.51902e-06
-4.52269e-06
-7.48055e-06
-8.30685e-06
-7.44687e-06
-1.26276e-05
-7.37754e-06
-1.76555e-05
-7.15765e-06
-2.36631e-05
-6.6034e-06
-3.1113e-05
-4.88177e-06
-4.10648e-05
-5.46623e-05
1.17873e-06
7.11972e-06
1.51509e-06
4.54588e-06
1.68289e-06
1.806e-06
1.6982e-06
-1.14752e-06
1.56232e-06
-4.38684e-06
1.26348e-06
-8.00803e-06
7.75031e-07
-1.21391e-05
8.11922e-08
-1.69616e-05
-7.92724e-07
-2.27892e-05
-1.72549e-06
-3.01802e-05
-2.25242e-06
-4.0538e-05
-5.69147e-05
1.02843e-05
6.39398e-06
1.07604e-05
4.06976e-06
1.10071e-05
1.55927e-06
1.10267e-05
-1.16717e-06
1.08017e-05
-4.16182e-06
1.02908e-05
-7.49715e-06
9.4214e-06
-1.12697e-05
8.10181e-06
-1.56421e-05
6.23911e-06
-2.09265e-05
3.81625e-06
-2.77574e-05
1.21716e-06
-3.79388e-05
-5.56976e-05
1.95578e-05
5.48386e-06
2.01847e-05
3.44286e-06
2.05464e-05
1.19751e-06
2.06366e-05
-1.25739e-06
2.04237e-05
-3.94888e-06
1.98422e-05
-6.9157e-06
1.87702e-05
-1.01977e-05
1.70305e-05
-1.39023e-05
1.43776e-05
-1.82736e-05
1.05561e-05
-2.3936e-05
5.66347e-06
-3.30462e-05
-5.0034e-05
2.93282e-05
4.48274e-06
3.00524e-05
2.71868e-06
3.052e-05
7.29913e-07
3.07201e-05
-1.4575e-06
3.061e-05
-3.83882e-06
3.01056e-05
-6.41122e-06
2.90419e-05
-9.13404e-06
2.7164e-05
-1.20243e-05
2.40607e-05
-1.51703e-05
1.9226e-05
-1.91012e-05
1.18461e-05
-2.56662e-05
-3.81879e-05
3.9887e-05
3.57169e-06
4.05886e-05
2.01707e-06
4.11043e-05
2.14196e-07
4.14207e-05
-1.77383e-06
4.14853e-05
-3.90344e-06
4.12004e-05
-6.12625e-06
4.03736e-05
-8.30722e-06
3.87063e-05
-1.03569e-05
3.56496e-05
-1.21136e-05
3.04639e-05
-1.39154e-05
2.06278e-05
-1.583e-05
-1.75601e-05
5.13407e-05
2.95534e-06
5.18868e-05
1.47099e-06
5.23876e-05
-2.86558e-07
5.28207e-05
-2.20693e-06
5.3119e-05
-4.20172e-06
5.31732e-05
-6.18042e-06
5.27884e-05
-7.92236e-06
5.16937e-05
-9.2621e-06
4.93641e-05
-9.78394e-06
4.48626e-05
-9.41383e-06
3.45454e-05
-5.51278e-06
1.69853e-05
6.5576e-05
3.99149e-06
-6.9307e-05
6.49299e-05
1.86286e-06
6.36067e-05
1.36805e-06
6.28693e-05
1.19374e-06
6.26303e-05
1.68305e-06
6.26835e-05
2.51189e-06
6.28583e-05
3.44348e-06
6.30366e-05
4.29722e-06
6.31573e-05
4.9033e-06
6.32054e-05
5.14453e-06
6.32321e-05
4.86438e-06
4.1321e-06
6.32733e-05
8.41188e-05
3.09324e-06
-8.32206e-05
8.38036e-05
2.178e-06
8.31459e-05
2.02577e-06
8.22881e-05
2.05154e-06
8.14398e-05
2.53132e-06
8.06201e-05
3.33155e-06
7.98011e-05
4.26258e-06
7.8956e-05
5.14234e-06
7.80867e-05
5.77258e-06
7.72317e-05
5.99955e-06
7.6494e-05
5.60219e-06
4.66251e-06
7.59636e-05
9.70594e-05
2.08541e-06
-9.60516e-05
9.73796e-05
1.85782e-06
9.73282e-05
2.07712e-06
9.69079e-05
2.47185e-06
9.62039e-05
3.23528e-06
9.52572e-05
4.27834e-06
9.40976e-05
5.42213e-06
9.2773e-05
6.46707e-06
9.13646e-05
7.18103e-06
9.00035e-05
7.36067e-06
8.88752e-05
6.73049e-06
5.33375e-06
8.82039e-05
0.00010882
-0.000108211
1.47691e-06
0.000109085
1.59258e-06
0.000109021
2.14146e-06
0.000108584
2.90811e-06
0.000107787
4.03255e-06
0.000106668
5.39769e-06
0.00010529
6.8001e-06
0.000103759
7.99774e-06
0.000102231
8.70905e-06
0.000100933
8.6587e-06
0.00010013
7.53318e-06
0.000100264
5.20034e-06
6.34909e-05
2.73748e-06
6.3838e-05
1.12386e-06
6.43365e-05