/*--------------------------------*- C++ -*----------------------------------*\
| =========                 |                                                 |
| \\      /  F ield         | OpenFOAM: The Open Source CFD Toolbox           |
|  \\    /   O peration     | Version:  4.0                                   |
|   \\  /    A nd           | Web:      www.OpenFOAM.org                      |
|    \\/     M anipulation  |                                                 |
\*---------------------------------------------------------------------------*/
FoamFile
{
    version     2.0;
    format      ascii;
    class       volVectorField;
    location    "450";
    object      U;
}
// * * * * * * * * * * * * * * * * * * * * * * * * * * * * * * * * * * * * * //

dimensions      [0 1 -1 0 0 0 0];

internalField   nonuniform List<vector> 
3072
(
(0.291766 2.21733 0)
(0.312313 1.93378 0)
(0.395471 1.76623 1.41813e-19)
(0.505297 1.65441 7.00402e-19)
(0.621952 1.58318 -1.17261e-18)
(0.749587 1.53051 6.88754e-19)
(0.870325 1.62102 3.61369e-19)
(1.19698 1.71838 1.31824e-18)
(2.07283 1.42779 -4.72104e-19)
(2.89016 1.64406 1.04143e-18)
(3.12926 2.04142 8.69564e-19)
(3.40662 2.15505 7.58428e-19)
(-0.375202 2.74223 -2.67075e-19)
(-0.218338 2.37795 -6.21327e-19)
(0.0366755 2.33673 5.31518e-19)
(0.310052 2.33736 0)
(0.617137 2.4006 1.11701e-18)
(1.08005 2.39234 -1.45648e-18)
(1.92623 2.45829 0)
(2.64549 2.73473 0)
(2.98767 2.73132 0)
(3.12724 2.79381 8.26397e-19)
(3.15098 2.8106 -2.83671e-18)
(3.2448 2.79589 3.4488e-19)
(-0.34884 2.99328 1.75828e-19)
(-0.109632 2.70034 0)
(0.307078 2.73068 0)
(0.798317 2.7542 -3.7335e-18)
(1.45305 2.83827 1.39657e-18)
(2.18155 2.98484 -2.09815e-18)
(2.68393 3.00932 1.74575e-18)
(2.98404 2.99326 0)
(3.14412 2.86533 0)
(3.22972 2.76289 -1.00424e-18)
(3.27778 2.67681 -1.09324e-18)
(3.34897 2.59112 3.82718e-18)
(-0.309714 3.31996 -1.30227e-18)
(0.0811995 3.11823 -2.13746e-18)
(0.651012 3.21603 1.91717e-18)
(1.30629 3.28314 -1.85797e-18)
(1.96069 3.34526 3.6599e-18)
(2.47954 3.32365 -3.58086e-18)
(2.78597 3.20359 -2.12322e-18)
(2.96063 3.073 -6.68834e-18)
(3.07517 2.91418 -3.15066e-19)
(3.13869 2.79184 3.60703e-18)
(3.18456 2.68496 4.03864e-18)
(3.23971 2.58304 -3.20259e-18)
(-0.0937872 3.53624 0)
(0.35203 3.49125 1.24085e-18)
(0.956483 3.60032 -2.87836e-18)
(1.59399 3.6364 3.26587e-18)
(2.14284 3.58972 6.12891e-19)
(2.5062 3.45321 2.10616e-18)
(2.71965 3.27984 2.37172e-18)
(2.85537 3.10866 2.3955e-18)
(2.94383 2.94032 -5.11678e-18)
(3.00674 2.7917 4.31717e-18)
(3.0605 2.66068 -5.83254e-18)
(3.11647 2.53979 7.70655e-18)
(0.116608 3.73047 -4.65626e-18)
(0.599648 3.78355 1.78776e-18)
(1.16484 3.86873 5.2453e-18)
(1.71632 3.83983 0)
(2.14438 3.71077 -7.17433e-18)
(2.42071 3.5251 7.74678e-18)
(2.59781 3.32457 0)
(2.72008 3.13063 -5.84156e-18)
(2.81018 2.94753 4.96704e-18)
(2.88067 2.78293 0)
(2.94243 2.63614 2.85558e-19)
(3.0024 2.50246 4.51323e-18)
(0.331723 3.89565 0)
(0.798207 4.04089 -4.17704e-18)
(1.28676 4.07287 3.83665e-18)
(1.73089 3.98624 0)
(2.06709 3.80856 -4.43043e-18)
(2.29786 3.59272 7.17697e-19)
(2.46016 3.37079 6.26058e-18)
(2.58164 3.15855 5.79532e-18)
(2.67745 2.96113 -5.10356e-18)
(2.75677 2.782 5.06925e-18)
(2.82694 2.62071 -4.38642e-18)
(2.89284 2.47431 -1.2301e-17)
(0.535755 4.08025 0)
(0.940237 4.29056 3.37209e-18)
(1.33211 4.25342 -4.88008e-18)
(1.67989 4.12228 4.88166e-18)
(1.95401 3.91028 0)
(2.16043 3.66905 -6.35172e-18)
(2.31846 3.42642 6.30013e-18)
(2.44433 3.19559 1.2726e-19)
(2.54815 2.98156 -1.05759e-17)
(2.63642 2.78661 -4.97087e-18)
(2.71441 2.61041 -2.8009e-19)
(2.78603 2.45083 8.96549e-18)
(0.700841 4.25086 0)
(1.02873 4.52495 -3.77834e-18)
(1.31676 4.4105 -5.31185e-18)
(1.58518 4.23613 -3.81307e-18)
(1.81535 3.99497 7.76377e-18)
(2.00697 3.73148 0)
(2.16565 3.47006 0)
(2.29868 3.22225 0)
(2.41187 2.9928 0)
(2.50954 2.78356 4.98065e-18)
(2.59547 2.59428 -5.02744e-18)
(2.67302 2.42305 4.82023e-18)
(0.831601 4.50931 0)
(1.02367 4.71948 2.6616e-18)
(1.21253 4.49933 -6.07754e-19)
(1.43003 4.26532 4.40026e-18)
(1.63354 3.99746 4.39679e-18)
(1.81841 3.71948 -7.0711e-18)
(1.98251 3.44957 0)
(2.12634 3.19573 -2.16787e-19)
(2.25189 2.96109 -1.76964e-17)
(2.36149 2.74671 0)
(2.4575 2.55219 1.10746e-17)
(2.54286 2.37573 -5.19756e-18)
(0.981528 4.56431 0)
(0.933527 4.68594 3.11174e-18)
(1.01624 4.37622 9.11506e-18)
(1.19676 4.08477 -7.78994e-18)
(1.38855 3.81499 -1.09036e-17)
(1.57776 3.55174 1.72852e-17)
(1.75474 3.30142 -1.95884e-19)
(1.91507 3.06679 -6.81181e-18)
(2.05742 2.84839 5.58614e-18)
(2.18275 2.6468 -1.19312e-17)
(2.29212 2.46186 -1.65915e-17)
(2.38826 2.29211 1.68276e-17)
(0.400245 4.17953 -1.83984e-18)
(0.559522 4.10141 -1.22187e-17)
(0.684871 3.80064 2.35123e-18)
(0.877665 3.55651 0)
(1.09062 3.36594 0)
(1.30055 3.17743 3.59156e-19)
(1.49678 2.99136 1.84632e-17)
(1.67587 2.8101 1.14194e-17)
(1.83632 2.63486 0)
(1.9787 2.46794 1.08025e-17)
(2.10278 2.31048 0)
(2.21135 2.16207 4.96156e-19)
(3.65729 2.25013 3.74278e-20)
(3.88334 2.17233 -3.12594e-19)
(4.04224 2.09859 -3.61444e-19)
(4.12766 1.94445 -5.85693e-19)
(4.14382 1.80494 -2.9441e-19)
(4.09558 1.61118 0)
(3.97023 1.43173 0)
(3.76568 1.22867 8.04131e-19)
(3.48438 1.02962 -9.43179e-19)
(3.10245 0.787643 0)
(2.68136 0.377756 0)
(2.5361 -0.222762 -6.63612e-19)
(3.34232 2.77137 1.70173e-18)
(3.43575 2.72261 0)
(3.53055 2.63857 -8.8923e-19)
(3.62266 2.51544 5.20485e-19)
(3.7018 2.35664 3.00973e-19)
(3.7405 2.19624 2.67539e-18)
(3.73518 2.03934 -4.35372e-18)
(3.67775 1.89525 6.7843e-19)
(3.56692 1.78351 0)
(3.32576 1.67982 0)
(3.04987 1.53933 0)
(3.19069 1.02249 7.28024e-19)
(3.41646 2.50464 1.60592e-18)
(3.48838 2.41435 -4.36297e-18)
(3.55842 2.31988 1.21867e-18)
(3.61852 2.22138 2.94528e-18)
(3.65932 2.12503 -2.97334e-18)
(3.67561 2.03263 0)
(3.66145 1.95569 0)
(3.61797 1.90429 -2.37973e-19)
(3.55256 1.88174 1.09516e-18)
(3.41676 1.87371 0)
(3.19977 1.86306 0)
(3.41299 1.7432 -4.68599e-19)
(3.29307 2.48516 3.54719e-19)
(3.34804 2.38969 4.33434e-18)
(3.40166 2.29496 3.0578e-18)
(3.4507 2.20179 -3.03914e-18)
(3.49037 2.11479 0)
(3.51629 2.03973 1.75065e-18)
(3.52459 1.98451 0)
(3.51827 1.95865 2.50784e-18)
(3.49395 1.96272 -7.73558e-19)
(3.42655 2.02027 0)
(3.24913 2.10411 -5.51254e-19)
(3.54745 2.15334 6.60188e-19)
(3.1719 2.42715 -3.13065e-18)
(3.22802 2.32137 0)
(3.28303 2.22174 0)
(3.33449 2.12967 0)
(3.37976 2.04893 0)
(3.41732 1.98434 -3.16701e-18)
(3.44565 1.94448 -1.41965e-19)
(3.46413 1.9361 -1.41198e-18)
(3.47937 1.96849 0)
(3.47616 2.05734 -1.23386e-18)
(3.36105 2.20082 4.9219e-19)
(3.77426 2.39989 -1.68919e-19)
(3.06103 2.3798 -2.48494e-19)
(3.11933 2.26681 -7.37971e-18)
(3.17674 2.16301 3.46588e-18)
(3.23229 2.06959 3.16534e-21)
(3.28507 1.98951 2.26109e-19)
(3.33485 1.92719 4.90153e-18)
(3.3825 1.88883 -1.5628e-19)
(3.43005 1.88159 -5.43483e-18)
(3.47955 1.91634 -2.17722e-18)
(3.53342 2.01026 1.08984e-18)
(3.47924 2.1999 -1.34142e-18)
(3.93863 2.52098 -5.41507e-19)
(2.95609 2.34081 1.17406e-17)
(3.01798 2.21881 3.83627e-18)
(3.07898 2.10788 0)
(3.13935 2.00885 0)
(3.19968 1.92402 2.13022e-19)
(3.26126 1.85697 -3.54949e-18)
(3.32649 1.81288 5.53575e-18)
(3.39897 1.79854 -1.30124e-19)
(3.48221 1.82498 1.8574e-18)
(3.58256 1.91185 0)
(3.60346 2.10086 -2.41116e-19)
(4.09858 2.50847 -7.96774e-20)
(2.85339 2.30588 -4.29952e-18)
(2.91832 2.17389 -3.95472e-18)
(2.98212 2.05418 4.23699e-18)
(3.04612 1.94706 -3.95348e-18)
(3.11204 1.85403 8.40141e-22)
(3.18246 1.77763 7.77796e-18)
(3.26137 1.72162 -3.55169e-18)
(3.35448 1.69183 1.99604e-18)
(3.46763 1.69856 0)
(3.61296 1.76284 1.19728e-18)
(3.71064 1.93738 6.10587e-19)
(4.20414 2.3908 -9.19458e-19)
(2.74442 2.26782 4.67727e-18)
(2.81199 2.12649 -4.52929e-18)
(2.8777 1.99798 -4.22393e-18)
(2.94367 1.88191 -8.77548e-18)
(3.01248 1.77897 8.41254e-18)
(3.08773 1.69056 -8.03251e-18)
(3.17489 1.6186 0)
(3.28208 1.56718 -1.88994e-18)
(3.41841 1.54429 0)
(3.60311 1.57036 0)
(3.78072 1.7089 0)
(4.26228 2.13268 4.37964e-19)
(2.6196 2.2154 5.04458e-18)
(2.69047 2.06852 -1.01421e-17)
(2.75786 1.93391 9.87778e-18)
(2.8243 1.81058 9.45409e-18)
(2.89289 1.69837 4.5496e-18)
(2.96823 1.59762 0)
(3.05702 1.50807 0)
(3.1693 1.43125 4.35834e-18)
(3.31805 1.371 0)
(3.53268 1.34442 -1.21546e-18)
(3.77232 1.40814 7.92734e-19)
(4.24871 1.72301 -1.27084e-18)
(2.47242 2.13631 -1.10583e-17)
(2.54783 1.99122 1.02125e-17)
(2.61696 1.85621 -9.97512e-18)
(2.68254 1.7298 -2.50186e-17)
(2.74781 1.61149 -2.48397e-19)
(2.8178 1.50072 1.34824e-19)
(2.90071 1.39495 -4.74864e-18)
(3.0069 1.29243 -4.31701e-18)
(3.15334 1.19083 0)
(3.37774 1.10161 3.63535e-18)
(3.65022 1.03641 8.92965e-19)
(4.11866 1.02671 -1.78254e-18)
(2.30378 2.02286 -4.93486e-19)
(2.38381 1.88865 0)
(2.45361 1.76069 0)
(2.5157 1.63715 4.77887e-18)
(2.57394 1.5177 1.45588e-17)
(2.63311 1.40144 -4.74652e-18)
(2.70258 1.28424 -2.1988e-19)
(2.79078 1.16113 -2.41264e-18)
(2.91685 1.02228 -2.23382e-18)
(3.10853 0.869053 -2.24665e-18)
(3.3901 0.645772 0)
(3.7184 -0.0320407 2.32307e-18)
(2.21708 -0.292031 3.53485e-23)
(1.93363 -0.312415 0)
(1.76614 -0.395521 -1.41777e-19)
(1.65431 -0.505306 0)
(1.5831 -0.621965 -5.95817e-19)
(1.53042 -0.749556 6.87966e-19)
(1.62081 -0.870259 0)
(1.71836 -1.19671 9.72701e-19)
(1.4278 -2.07216 -3.96339e-19)
(1.64369 -2.89001 -8.32222e-20)
(2.04117 -3.12933 -8.48842e-19)
(2.15486 -3.4066 -7.58417e-19)
(2.7421 0.37513 -3.4094e-19)
(2.37791 0.218347 -1.91754e-19)
(2.3366 -0.036644 6.20306e-19)
(2.3372 -0.31001 0)
(2.40038 -0.617016 -1.11718e-18)
(2.39231 -1.07962 6.37684e-19)
(2.45798 -1.92573 0)
(2.7345 -2.64537 9.49947e-19)
(2.7312 -2.98775 -2.35108e-18)
(2.79364 -3.12741 1.97253e-18)
(2.81052 -3.15113 1.54073e-18)
(2.79582 -3.24488 -3.89429e-18)
(2.9932 0.348812 -1.75849e-19)
(2.70025 0.109698 0)
(2.73053 -0.306942 -1.67724e-18)
(2.75403 -0.798031 0)
(2.83799 -1.45262 0)
(2.98461 -2.1813 -8.21543e-19)
(3.00915 -2.68392 4.00445e-18)
(2.99315 -2.98418 -2.77529e-18)
(2.86527 -3.14425 9.56726e-19)
(2.7628 -3.2299 0)
(2.67674 -3.27793 2.67359e-18)
(2.59106 -3.34909 -1.62735e-18)
(3.31995 0.309833 8.45662e-19)
(3.11813 -0.081001 1.25535e-18)
(3.2159 -0.650733 1.40105e-18)
(3.28297 -1.30598 2.8184e-18)
(3.34509 -1.9605 -1.68963e-18)
(3.32357 -2.47957 -1.19842e-18)
(3.20354 -2.78612 0)
(3.07295 -2.96081 0)
(2.91413 -3.07534 2.1699e-18)
(2.79178 -3.13886 0)
(2.6849 -3.1847 5.02589e-19)
(2.58299 -3.23983 1.39545e-18)
(3.53626 0.0939332 1.29175e-18)
(3.4912 -0.3518 -9.95375e-19)
(3.60027 -0.956239 -2.87882e-18)
(3.63636 -1.59383 0)
(3.58972 -2.14284 0)
(3.45323 -2.50634 2.98068e-18)
(3.27983 -2.71982 0)
(3.10864 -2.85555 -5.7572e-18)
(2.94029 -2.94399 -2.45374e-18)
(2.79165 -3.00688 4.3176e-18)
(2.66063 -3.06062 -5.83303e-18)
(2.53974 -3.11657 3.65598e-18)
(3.73054 -0.116425 -2.62555e-18)
(3.78356 -0.599445 -1.5293e-18)
(3.86877 -1.16468 2.23992e-18)
(3.8399 -1.71626 3.94461e-19)
(3.71085 -2.14444 3.6197e-18)
(3.52515 -2.42084 -7.4172e-18)
(3.32458 -2.59796 6.78437e-18)
(3.13062 -2.72023 6.90056e-19)
(2.9475 -2.81032 0)
(2.78288 -2.88079 0)
(2.63609 -2.94253 8.79223e-18)
(2.50241 -3.00247 5.97823e-20)
(3.89573 -0.331592 -3.06106e-20)
(4.04094 -0.798067 -2.30832e-18)
(4.07297 -1.28666 0)
(3.98636 -1.73087 -4.52041e-18)
(3.80866 -2.06714 4.71973e-18)
(3.59278 -2.29797 1.12902e-17)
(3.37082 -2.46028 6.92345e-18)
(3.15854 -2.58176 8.86551e-19)
(2.96109 -2.67756 -1.07642e-17)
(2.78195 -2.75686 4.71204e-18)
(2.62065 -2.82702 5.04399e-18)
(2.47426 -2.89289 2.71963e-19)
(4.08032 -0.535653 2.19186e-19)
(4.29063 -0.940144 3.37185e-18)
(4.25353 -1.33205 0)
(4.1224 -1.67987 -4.88172e-18)
(3.91038 -1.95405 -3.55815e-18)
(3.66911 -2.1605 6.43707e-19)
(3.42644 -2.31854 -1.18978e-17)
(3.19558 -2.44441 4.29815e-19)
(2.98153 -2.54822 -2.75534e-19)
(2.78655 -2.63648 5.22537e-18)
(2.61035 -2.71446 -4.22093e-18)
(2.45077 -2.78607 2.24302e-19)
(4.25094 -0.700796 -3.42819e-18)
(4.52502 -1.02867 1.51169e-18)
(4.41061 -1.31671 -7.73104e-18)
(4.23624 -1.58516 3.81284e-18)
(3.99505 -1.81537 0)
(3.73154 -2.00701 0)
(3.47008 -2.1657 6.50437e-18)
(3.22224 -2.29874 1.19186e-17)
(2.99277 -2.41192 -5.45909e-18)
(2.78351 -2.50959 -4.9807e-18)
(2.59421 -2.59551 -4.78371e-18)
(2.42298 -2.67305 0)
(4.50937 -0.831603 7.20131e-20)
(4.71951 -1.02363 4.04709e-18)
(4.49939 -1.21249 9.1718e-18)
(4.26539 -1.43001 0)
(3.99752 -1.63354 7.67009e-18)
(3.71952 -1.81842 0)
(3.44958 -1.98254 3.38191e-19)
(3.19572 -2.12637 -5.70766e-18)
(2.96106 -2.25193 6.20133e-18)
(2.74666 -2.36152 0)
(2.55213 -2.45753 0)
(2.37567 -2.54289 -1.07266e-17)
(4.56432 -0.981543 -6.51591e-18)
(4.68594 -0.933499 3.11159e-18)
(4.37624 -1.01621 5.19916e-19)
(4.0848 -1.19673 -8.5931e-18)
(3.81502 -1.38853 -3.37075e-18)
(3.55176 -1.57775 -3.45551e-18)
(3.30143 -1.75475 -6.74001e-18)
(3.06678 -1.91509 -1.90601e-17)
(2.84836 -2.05745 -5.58584e-18)
(2.64676 -2.18278 -1.19307e-17)
(2.46181 -2.29214 1.16011e-17)
(2.29206 -2.38828 1.06807e-17)
(4.17954 -0.40026 3.52156e-18)
(4.10139 -0.559504 -1.401e-18)
(3.80064 -0.68485 3.52836e-19)
(3.55652 -0.877643 7.31847e-18)
(3.36595 -1.09061 0)
(3.17745 -1.30054 -6.63077e-18)
(2.99137 -1.49678 5.94532e-18)
(2.81009 -1.67588 5.30258e-18)
(2.63485 -1.83635 -1.72913e-17)
(2.46791 -1.97872 1.0802e-17)
(2.31045 -2.10281 -1.0595e-17)
(2.16203 -2.21138 0)
(2.25009 -3.65732 -3.79435e-19)
(2.17227 -3.88336 9.22177e-19)
(2.0986 -4.0423 -9.31342e-19)
(1.94445 -4.12772 -2.29517e-19)
(1.80496 -4.1439 -1.39532e-19)
(1.6112 -4.09565 8.24893e-20)
(1.43176 -3.97032 -1.2861e-19)
(1.2287 -3.76575 -3.22855e-19)
(1.02965 -3.48447 -9.43185e-19)
(0.787669 -3.10251 0)
(0.377794 -2.68141 0)
(-0.222666 -2.53617 -6.63578e-19)
(2.77129 -3.34243 -6.53347e-20)
(2.72257 -3.43583 2.18142e-18)
(2.63855 -3.53063 -8.89193e-19)
(2.51544 -3.62273 0)
(2.35666 -3.70187 1.7527e-18)
(2.19627 -3.74056 0)
(2.03936 -3.73524 1.30422e-18)
(1.89529 -3.6778 2.24214e-18)
(1.78355 -3.56697 -1.90516e-18)
(1.67986 -3.32578 0)
(1.53939 -3.04991 0)
(1.02261 -3.19071 -3.00612e-20)
(2.50459 -3.41657 1.15754e-18)
(2.41431 -3.48847 -1.08196e-18)
(2.31986 -3.55849 1.21872e-18)
(2.22137 -3.61858 0)
(2.12503 -3.65938 -1.30717e-18)
(2.03265 -3.67566 3.27647e-18)
(1.95571 -3.6615 -4.72908e-18)
(1.90433 -3.61801 -5.24302e-18)
(1.88179 -3.55259 3.0782e-18)
(1.87377 -3.41678 0)
(1.86313 -3.19977 6.12837e-19)
(1.7433 -3.41299 1.51985e-19)
(2.48512 -3.29317 1.33989e-18)
(2.38965 -3.34812 -3.02044e-18)
(2.29494 -3.40173 3.0579e-18)
(2.20178 -3.45075 -3.03921e-18)
(2.11479 -3.49041 0)
(2.03974 -3.51633 1.75062e-18)
(1.98454 -3.52462 1.17325e-18)
(1.95869 -3.5183 6.90286e-19)
(1.96277 -3.49397 -1.57053e-18)
(2.02034 -3.42657 0)
(2.1042 -3.24914 -3.54669e-19)
(2.15346 -3.54746 5.91993e-19)
(2.42711 -3.17198 3.50846e-18)
(2.32133 -3.22809 -1.8101e-18)
(2.22172 -3.28309 0)
(2.12966 -3.33453 0)
(2.04893 -3.37979 1.72874e-18)
(1.98435 -3.41734 -1.44763e-18)
(1.94451 -3.44567 -2.57804e-19)
(1.93614 -3.46414 0)
(1.96854 -3.47938 -8.37092e-19)
(2.05741 -3.47617 1.23374e-18)
(2.20091 -3.36105 -1.07775e-18)
(2.40001 -3.77426 -2.72281e-19)
(2.37976 -3.06109 -7.4532e-18)
(2.26677 -3.11938 3.55814e-18)
(2.16299 -3.17678 7.164e-18)
(2.06957 -3.23231 3.1646e-21)
(1.98951 -3.28509 -8.48611e-18)
(1.9272 -3.33486 -3.59043e-18)
(1.88885 -3.3825 -2.46457e-19)
(1.88162 -3.43005 0)
(1.9164 -3.47956 0)
(2.01033 -3.53342 -1.0898e-18)
(2.19999 -3.47924 -7.80748e-19)
(2.5211 -3.93863 2.37532e-19)
(2.34076 -2.95613 4.01201e-18)
(2.21877 -3.01802 -7.90275e-18)
(2.10785 -3.079 -3.50274e-18)
(2.00883 -3.13937 -2.02778e-19)
(1.92401 -3.19969 3.35442e-18)
(1.85698 -3.26126 3.30943e-18)
(1.8129 -3.32649 1.86606e-18)
(1.79858 -3.39897 1.81629e-18)
(1.82503 -3.4822 -2.0148e-18)
(1.91192 -3.58255 0)
(2.10095 -3.60345 1.25429e-18)
(2.50859 -4.09857 -3.60608e-19)
(2.30582 -2.85342 0)
(2.17384 -2.91834 3.95474e-18)
(2.05414 -2.98213 0)
(1.94703 -3.04612 -2.0183e-19)
(1.85402 -3.11203 8.4099e-22)
(1.77763 -3.18245 7.77779e-18)
(1.72163 -3.26136 -7.49396e-18)
(1.69186 -3.35446 0)
(1.69861 -3.46761 -2.1329e-18)
(1.7629 -3.61294 1.19724e-18)
(1.93746 -3.71063 -2.33562e-18)
(2.39091 -4.20413 1.1738e-18)
(2.26776 -2.74444 4.67725e-18)
(2.12644 -2.812 -4.52925e-18)
(1.99793 -2.8777 -4.58023e-18)
(1.88188 -2.94366 4.46794e-18)
(1.77895 -3.01246 4.20935e-18)
(1.69056 -3.08771 -1.23035e-17)
(1.61861 -3.17486 3.83207e-18)
(1.5672 -3.28205 0)
(1.54433 -3.41838 1.94471e-18)
(1.57041 -3.60309 0)
(1.70897 -3.7807 2.84856e-18)
(2.13279 -4.26226 -2.08215e-18)
(2.21534 -2.61961 0)
(2.06847 -2.69048 -1.01418e-17)
(1.93386 -2.75785 -5.26226e-18)
(1.81054 -2.82429 -9.16987e-18)
(1.69835 -2.89287 4.54944e-18)
(1.59761 -2.9682 4.28215e-18)
(1.50808 -3.05699 0)
(1.43127 -3.16926 0)
(1.37104 -3.31801 0)
(1.34447 -3.53264 0)
(1.4082 -3.77229 -7.9502e-19)
(1.72309 -4.24869 -1.03908e-19)
(2.13626 -2.47243 5.38836e-18)
(1.99116 -2.54783 4.94702e-18)
(1.85616 -2.61695 2.05291e-17)
(1.72977 -2.68252 5.26545e-18)
(1.61147 -2.74778 1.97453e-17)
(1.50071 -2.81777 -4.74722e-18)
(1.39495 -2.90067 -4.74837e-18)
(1.29245 -3.00686 0)
(1.19086 -3.15329 -4.48898e-18)
(1.10165 -3.37769 -2.41758e-18)
(1.03646 -3.65018 -1.83009e-18)
(1.02677 -4.11863 -1.10756e-25)
(2.02282 -2.3038 0)
(1.88861 -2.38382 0)
(1.76065 -2.45361 -2.04398e-17)
(1.63712 -2.51568 -1.48689e-17)
(1.51768 -2.57392 -4.69509e-18)
(1.40144 -2.63308 0)
(1.28424 -2.70253 4.71165e-18)
(1.16114 -2.79073 0)
(1.0223 -2.91679 -1.96207e-19)
(0.869084 -3.10847 2.2465e-18)
(0.645806 -3.39004 6.58765e-19)
(-0.0320202 -3.71835 4.59877e-18)
(-0.292137 -2.21709 1.16936e-19)
(-0.312533 -1.93366 1.83856e-19)
(-0.395636 -1.76622 -1.65643e-19)
(-0.505435 -1.65444 5.74153e-21)
(-0.622021 -1.58321 0)
(-0.749707 -1.53056 2.42171e-20)
(-0.870451 -1.62125 0)
(-1.19736 -1.71837 5.07744e-19)
(-2.07378 -1.42778 1.1638e-18)
(-2.89037 -1.6446 -3.08659e-20)
(-3.12914 -2.04182 7.75009e-19)
(-3.40666 -2.15535 7.80601e-19)
(0.374991 -2.74213 4.47633e-19)
(0.218198 -2.37802 -6.22115e-19)
(-0.03678 -2.33681 5.76606e-19)
(-0.310107 -2.33748 -9.21447e-21)
(-0.617264 -2.40085 -1.11917e-18)
(-1.08054 -2.39235 -2.03286e-19)
(-1.92686 -2.45865 -1.1003e-18)
(-2.64561 -2.73499 -1.4972e-18)
(-2.98754 -2.73141 2.17685e-18)
(-3.127 -2.794 -5.36665e-19)
(-3.15077 -2.81065 7.42406e-19)
(-3.2447 -2.79596 4.59417e-19)
(0.348572 -2.99322 -3.51933e-19)
(0.109406 -2.70036 0)
(-0.307274 -2.7307 0)
(-0.798614 -2.75427 -1.58891e-18)
(-1.4535 -2.83848 0)
(-2.18186 -2.98501 -1.27665e-18)
(-2.68393 -3.00942 6.69007e-19)
(-2.98386 -2.99329 2.4441e-18)
(-3.14394 -2.86531 -1.22006e-18)
(-3.22949 -2.76294 -1.77587e-18)
(-3.27758 -2.67685 -3.76743e-18)
(-3.34882 -2.59116 3.82764e-18)
(0.30948 -3.31994 -1.69238e-18)
(-0.0815042 -3.11822 -1.25646e-18)
(-0.651362 -3.21604 2.47385e-18)
(-1.30665 -3.28321 9.59484e-19)
(-1.96095 -3.34533 0)
(-2.47952 -3.32363 -4.4319e-18)
(-2.7858 -3.20355 3.22515e-18)
(-2.9604 -3.07296 0)
(-3.07495 -2.91415 3.21982e-18)
(-3.13846 -2.79185 -5.17751e-18)
(-3.18437 -2.68497 3.53547e-18)
(-3.23956 -2.58305 4.87651e-19)
(0.0935663 -3.53618 1.97077e-18)
(-0.352353 -3.49123 3.0449e-18)
(-0.956801 -3.6003 9.56517e-19)
(-1.59421 -3.63636 0)
(-2.14288 -3.58962 -2.71842e-18)
(-2.50606 -3.4531 4.52927e-18)
(-2.71944 -3.27975 0)
(-2.85515 -3.1086 -3.14347e-18)
(-2.94363 -2.94028 -2.93818e-18)
(-3.00655 -2.79168 4.31618e-18)
(-3.06034 -2.66067 0)
(-3.11635 -2.53979 -3.3103e-18)
(-0.116836 -3.73036 2.03084e-18)
(-0.599924 -3.7835 7.27928e-19)
(-1.16507 -3.86864 -2.23914e-18)
(-1.71643 -3.83969 -8.92409e-18)
(-2.14434 -3.71062 -3.08312e-19)
(-2.42057 -3.52497 7.74606e-18)
(-2.59764 -3.32446 0)
(-2.7199 -3.13056 8.82052e-18)
(-2.81002 -2.94748 -5.15135e-18)
(-2.88053 -2.7829 4.50925e-18)
(-2.94231 -2.63613 2.85473e-19)
(-3.0023 -2.50245 -5.97531e-20)
(-0.331916 -3.89556 -1.89869e-18)
(-0.798406 -4.04082 -1.48134e-18)
(-1.28691 -4.07274 0)
(-1.73095 -3.98608 9.7821e-18)
(-2.06704 -3.8084 -1.33092e-17)
(-2.29776 -3.59259 -2.20032e-19)
(-2.46003 -3.3707 -1.31802e-17)
(-2.58151 -3.15848 5.47232e-19)
(-2.67733 -2.96108 -5.10243e-18)
(-2.75666 -2.78198 -5.06813e-18)
(-2.82685 -2.62069 5.04262e-18)
(-2.89276 -2.4743 -4.16837e-18)
(-0.535897 -4.08016 -1.69192e-19)
(-0.940376 -4.29048 -1.82318e-18)
(-1.33221 -4.25327 0)
(-1.67992 -4.12212 4.88072e-18)
(-1.95398 -3.91013 3.34088e-18)
(-2.16035 -3.66892 2.98469e-18)
(-2.31835 -3.42633 -5.19506e-19)
(-2.44422 -3.19553 -1.27225e-19)
(-2.54805 -2.98152 -5.67528e-18)
(-2.63633 -2.78658 -6.10474e-19)
(-2.71433 -2.61039 2.37551e-19)
(-2.78596 -2.45082 0)
(-0.700935 -4.25078 2.13408e-18)
(-1.02881 -4.52487 0)
(-1.31682 -4.41038 0)
(-1.58519 -4.23598 -3.81273e-18)
(-1.81532 -3.99482 3.39679e-18)
(-2.00691 -3.73136 -7.04054e-18)
(-2.16557 -3.46996 0)
(-2.29859 -3.22218 5.83415e-18)
(-2.41178 -2.99275 -2.47573e-19)
(-2.50946 -2.78353 4.9798e-18)
(-2.5954 -2.59425 -5.22214e-18)
(-2.67296 -2.42303 1.00447e-17)
(-0.83163 -4.50924 4.37544e-18)
(-1.02372 -4.71942 -1.3859e-18)
(-1.21256 -4.49922 -4.89011e-18)
(-1.43004 -4.26519 -8.45093e-18)
(-1.63351 -3.99732 0)
(-1.81835 -3.71936 6.39766e-18)
(-1.98244 -3.44947 -1.29901e-17)
(-2.12626 -3.19565 5.78099e-18)
(-2.25182 -2.96103 6.20062e-18)
(-2.36142 -2.74666 0)
(-2.45743 -2.55215 -5.92358e-18)
(-2.54281 -2.3757 -9.99523e-18)
(-0.981548 -4.56429 -6.46361e-18)
(-0.933551 -4.68589 1.41534e-18)
(-1.01624 -4.37614 4.29741e-18)
(-1.19674 -4.08465 3.64248e-18)
(-1.38852 -3.81487 -5.00322e-20)
(-1.5777 -3.55162 -1.06923e-17)
(-1.75467 -3.30131 1.27934e-17)
(-1.915 -3.0667 2.50607e-17)
(-2.05735 -2.84831 -1.75714e-17)
(-2.18269 -2.64674 -1.19298e-17)
(-2.29205 -2.46181 1.09386e-17)
(-2.38821 -2.29207 0)
(-0.400217 -4.17949 5.43867e-18)
(-0.559498 -4.10135 1.85291e-18)
(-0.684853 -3.80056 1.99829e-18)
(-0.87764 -3.55641 7.87055e-18)
(-1.09059 -3.36583 0)
(-1.30049 -3.17732 6.27143e-18)
(-1.49671 -2.99126 -1.25166e-17)
(-1.6758 -2.81001 -5.54833e-18)
(-1.83626 -2.63478 -5.69051e-18)
(-1.97864 -2.46787 1.08016e-17)
(-2.10273 -2.31042 5.65988e-18)
(-2.21131 -2.16203 1.62736e-17)
(-3.65728 -2.25023 1.03252e-19)
(-3.88336 -2.17247 6.06575e-19)
(-4.0422 -2.09863 2.58297e-19)
(-4.12767 -1.94452 -5.92211e-19)
(-4.14376 -1.80494 1.54669e-19)
(-4.09559 -1.61121 0)
(-3.97019 -1.43172 -5.14771e-19)
(-3.76569 -1.22867 3.90205e-19)
(-3.48437 -1.0296 0)
(-3.10247 -0.787631 1.15849e-19)
(-2.68137 -0.377762 0)
(-2.53614 0.222708 0)
(-3.34219 -2.77145 -4.30312e-18)
(-3.43567 -2.72265 3.04183e-18)
(-3.53048 -2.63857 2.31977e-18)
(-3.62261 -2.51543 -9.80159e-19)
(-3.70175 -2.35663 0)
(-3.74046 -2.19623 0)
(-3.73514 -2.03932 1.48888e-18)
(-3.67772 -1.89523 -1.60473e-18)
(-3.5669 -1.78349 0)
(-3.32573 -1.67979 6.08761e-19)
(-3.04988 -1.53933 -3.80522e-20)
(-3.19069 -1.02256 -1.10217e-18)
(-3.41632 -2.50468 1.66007e-18)
(-3.48828 -2.41438 -2.84117e-18)
(-3.55833 -2.3199 0)
(-3.61844 -2.22139 -2.97704e-18)
(-3.65926 -2.12503 -3.04515e-18)
(-3.67557 -2.03263 6.48188e-18)
(-3.66142 -1.95567 -5.77384e-18)
(-3.61794 -1.90428 0)
(-3.55254 -1.88172 0)
(-3.41674 -1.87369 0)
(-3.19975 -1.86305 -5.3538e-19)
(-3.41296 -1.74321 1.64636e-19)
(-3.29294 -2.48517 -1.33961e-18)
(-3.34794 -2.38969 -3.98107e-19)
(-3.40158 -2.29496 0)
(-3.45064 -2.20178 -3.7596e-19)
(-3.49032 -2.11477 0)
(-3.51626 -2.03971 0)
(-3.52457 -1.98448 1.3332e-18)
(-3.51826 -1.95863 -1.59607e-18)
(-3.49394 -1.9627 1.73066e-18)
(-3.42654 -2.02025 0)
(-3.24913 -2.1041 -5.5128e-19)
(-3.54743 -2.15336 -6.60239e-19)
(-3.1718 -2.42715 7.30883e-18)
(-3.22794 -2.32136 -1.80968e-18)
(-3.28297 -2.22173 3.24366e-18)
(-3.33445 -2.12966 1.45559e-18)
(-3.37972 -2.04892 -4.91513e-18)
(-3.41729 -1.98432 0)
(-3.44563 -1.94445 -1.65783e-18)
(-3.46411 -1.93608 0)
(-3.47935 -1.96846 0)
(-3.47615 -2.05732 1.23378e-18)
(-3.36105 -2.20081 3.14893e-20)
(-3.77423 -2.39989 7.41143e-19)
(-3.06095 -2.3798 -3.47606e-18)
(-3.11927 -2.2668 -2.63563e-19)
(-3.1767 -2.16301 0)
(-3.23225 -2.06958 0)
(-3.28504 -1.9895 -5.37161e-18)
(-3.33482 -1.92717 3.36704e-18)
(-3.38248 -1.8888 3.42497e-18)
(-3.43003 -1.88156 1.78211e-18)
(-3.47954 -1.91631 -4.22263e-18)
(-3.53341 -2.01023 -1.08981e-18)
(-3.47924 -2.19988 0)
(-3.9386 -2.52098 8.45515e-19)
(-2.95603 -2.34081 -8.23919e-18)
(-3.01793 -2.21881 3.38147e-18)
(-3.07894 -2.10787 3.73415e-18)
(-3.13932 -2.00884 2.0436e-19)
(-3.19966 -1.924 -4.18279e-19)
(-3.26124 -1.85695 -3.74587e-18)
(-3.32647 -1.81286 -5.43234e-18)
(-3.39895 -1.79851 -1.94809e-18)
(-3.48219 -1.82494 1.85716e-18)
(-3.58255 -1.91182 0)
(-3.60346 -2.10084 2.12082e-18)
(-4.09855 -2.50846 -5.40201e-19)
(-2.85334 -2.30587 8.40321e-18)
(-2.91828 -2.17388 -4.56769e-18)
(-2.98208 -2.05417 -4.23614e-18)
(-3.04609 -1.94704 -7.70361e-18)
(-3.11201 -1.85402 7.53661e-18)
(-3.18243 -1.77761 -1.94803e-19)
(-3.26135 -1.72159 1.12514e-17)
(-3.35446 -1.6918 1.78604e-18)
(-3.46761 -1.69853 2.13265e-18)
(-3.61294 -1.7628 0)
(-3.71064 -1.93736 -1.45273e-18)
(-4.20412 -2.39078 -6.93682e-19)
(-2.74437 -2.26781 0)
(-2.81195 -2.12648 4.33812e-18)
(-2.87767 -1.99796 4.22309e-18)
(-2.94364 -1.8819 -4.30657e-18)
(-3.01245 -1.77895 -1.6467e-19)
(-3.0877 -1.69054 -4.27051e-18)
(-3.17486 -1.61858 -3.83146e-18)
(-3.28205 -1.56715 0)
(-3.41839 -1.54425 -1.94448e-18)
(-3.60309 -1.57032 -1.20705e-18)
(-3.78071 -1.70887 4.66067e-18)
(-4.26226 -2.13266 -9.97138e-19)
(-2.61955 -2.21538 0)
(-2.69043 -2.0685 0)
(-2.75782 -1.93389 0)
(-2.82427 -1.81056 -1.42962e-17)
(-2.89286 -1.69836 9.07304e-18)
(-2.9682 -1.5976 8.72087e-18)
(-3.05699 -1.50805 0)
(-3.16926 -1.43122 -4.35745e-18)
(-3.31802 -1.37097 0)
(-3.53265 -1.34438 -2.4827e-18)
(-3.7723 -1.4081 -7.94982e-19)
(-4.24869 -1.72297 -1.27088e-18)
(-2.47237 -2.13628 0)
(-2.54779 -1.99119 0)
(-2.61692 -1.85618 1.0553e-17)
(-2.6825 -1.72978 1.4733e-17)
(-2.74777 -1.61148 4.0757e-19)
(-2.81777 -1.50071 4.88132e-18)
(-2.90067 -1.39493 -2.32628e-18)
(-3.00687 -1.2924 6.53646e-18)
(-3.15331 -1.19079 4.48834e-18)
(-3.37771 -1.10157 2.25646e-18)
(-3.65019 -1.03637 -1.82998e-18)
(-4.11864 -1.02665 -1.95381e-18)
(-2.30374 -2.02282 0)
(-2.38378 -1.88861 0)
(-2.45357 -1.76066 -9.97947e-18)
(-2.51566 -1.63713 5.24943e-18)
(-2.57391 -1.51768 -4.69478e-18)
(-2.63308 -1.40142 -4.746e-18)
(-2.70255 -1.28422 4.93115e-18)
(-2.79075 -1.1611 0)
(-2.91681 -1.02224 -4.38914e-18)
(-3.1085 -0.869009 -2.33712e-18)
(-3.39006 -0.645715 2.26294e-18)
(-3.71837 0.0321099 -4.61874e-18)
(-2.21709 0.29203 1.16729e-19)
(-1.93363 0.312418 0)
(-1.76615 0.395519 0)
(-1.65433 0.505311 5.66753e-19)
(-1.58312 0.621948 -6.03373e-19)
(-1.53046 0.749564 0)
(-1.62095 0.870284 0)
(-1.71837 1.19691 5.07089e-19)
(-1.42778 2.07274 1.20762e-18)
(-1.64401 2.8902 1.18168e-18)
(-2.04144 3.12933 -7.37323e-20)
(-2.15507 3.40669 7.23545e-19)
(-2.74211 -0.375122 -6.21293e-19)
(-2.37793 -0.21833 0)
(-2.33664 0.0366637 0)
(-2.33726 0.310033 -9.09548e-19)
(-2.40049 0.617098 2.31538e-18)
(-2.39232 1.07993 -2.56426e-18)
(-2.4582 1.92612 9.12729e-19)
(-2.73467 2.64552 8.54266e-19)
(-2.7313 2.98775 -2.75929e-19)
(-2.79378 3.12734 8.26359e-19)
(-2.81059 3.15107 0)
(-2.7959 3.24487 -1.79595e-18)
(-2.99322 -0.348783 3.51696e-19)
(-2.70027 -0.109641 0)
(-2.73057 0.307031 0)
(-2.75409 0.798209 -9.33773e-19)
(-2.83813 1.45289 7.10314e-19)
(-2.98472 2.1815 -1.60443e-18)
(-3.00924 2.684 0)
(-2.99321 2.98416 -3.20757e-18)
(-2.8653 3.14423 3.90961e-18)
(-2.76286 3.22983 -1.00421e-18)
(-2.67681 3.27788 -2.65152e-18)
(-2.59113 3.34906 3.82703e-18)
(-3.31995 -0.30977 -8.45715e-19)
(-3.11815 0.0811086 1.2555e-18)
(-3.21593 0.650887 0)
(-3.28303 1.30617 9.59652e-19)
(-3.34515 1.96066 -6.5095e-19)
(-3.32359 2.47963 1.19846e-18)
(-3.20355 2.78611 0)
(-3.07296 2.96076 -2.41638e-18)
(-2.91415 3.07529 -5.38857e-18)
(-2.79182 3.1388 3.6069e-18)
(-2.68495 3.18465 3.53594e-18)
(-2.58304 3.23979 -6.89264e-18)
(-3.53625 -0.0938665 9.84669e-19)
(-3.4912 0.351916 -1.24076e-18)
(-3.60027 0.956381 2.8784e-18)
(-3.63635 1.59397 0)
(-3.5897 2.14292 -5.76203e-18)
(-3.4532 2.50635 5.40212e-18)
(-3.27982 2.71979 3.2182e-18)
(-3.10864 2.8555 2.39545e-18)
(-2.9403 2.94394 0)
(-2.79168 3.00683 0)
(-2.66066 3.06057 0)
(-2.53978 3.11654 -7.39824e-19)
(-3.7305 0.1165 5.25085e-18)
(-3.78354 0.599548 0)
(-3.86874 1.16479 -2.23963e-18)
(-3.83985 1.71635 4.6586e-18)
(-3.71079 2.14449 3.57621e-18)
(-3.5251 2.42084 -7.38313e-18)
(-3.32455 2.59793 3.46674e-18)
(-3.13061 2.72019 -1.21031e-17)
(-2.9475 2.81028 -1.85544e-19)
(-2.7829 2.88075 -4.42874e-19)
(-2.63612 2.94249 2.85547e-19)
(-2.50244 3.00244 1.17535e-17)
(-3.89569 0.331653 -6.80624e-18)
(-4.04091 0.798146 4.1771e-18)
(-4.07292 1.28675 -6.38293e-18)
(-3.98629 1.73095 -4.52001e-18)
(-3.80859 2.06719 -8.28122e-18)
(-3.59272 2.29798 -4.41563e-18)
(-3.37077 2.46026 -6.52903e-18)
(-3.15852 2.58173 1.08572e-17)
(-2.96109 2.67752 0)
(-2.78196 2.75683 9.49198e-18)
(-2.62067 2.82698 -1.33248e-17)
(-2.47428 2.89286 4.46152e-18)
(-4.08029 0.535699 -3.15046e-18)
(-4.2906 0.940206 -5.34209e-18)
(-4.25348 1.33212 7.5114e-18)
(-4.12233 1.67994 0)
(-3.91031 1.95408 -4.18234e-18)
(-3.66904 2.16051 6.35165e-18)
(-3.4264 2.31853 -3.21246e-19)
(-3.19555 2.44439 1.27263e-19)
(-2.98151 2.5482 -5.24368e-18)
(-2.78655 2.63645 -9.90034e-18)
(-2.61036 2.71443 4.43768e-18)
(-2.45079 2.78604 -4.4972e-18)
(-4.25091 0.700822 2.13424e-18)
(-4.525 1.02872 0)
(-4.41056 1.31676 0)
(-4.23618 1.5852 0)
(-3.99499 1.8154 3.39696e-18)
(-3.73147 2.00703 0)
(-3.47003 2.1657 -4.11961e-19)
(-3.2222 2.29873 1.15872e-17)
(-2.99274 2.4119 2.8245e-19)
(-2.7835 2.50956 4.98034e-18)
(-2.59422 2.59548 -5.02708e-18)
(-2.42299 2.67301 1.48656e-17)
(-4.50935 0.831621 7.20075e-20)
(-4.71951 1.02367 7.35416e-18)
(-4.49937 1.21253 -2.25121e-18)
(-4.26535 1.43005 0)
(-3.99747 1.63357 0)
(-3.71947 1.81844 0)
(-3.44954 1.98254 0)
(-3.19569 2.12637 6.04242e-18)
(-2.96104 2.25191 -2.32136e-17)
(-2.74665 2.3615 -1.14748e-17)
(-2.55213 2.4575 1.10736e-17)
(-2.37568 2.54285 5.92695e-18)
(-4.56433 0.981556 -6.46326e-18)
(-4.68594 0.933525 -4.30105e-18)
(-4.37623 1.01624 -2.56667e-18)
(-4.08478 1.19676 0)
(-3.81499 1.38857 0)
(-3.55173 1.57778 7.18386e-18)
(-3.3014 1.75476 -1.32835e-17)
(-3.06676 1.91509 2.52807e-17)
(-2.84835 2.05744 1.79129e-17)
(-2.64676 2.18277 1.12325e-17)
(-2.46181 2.29212 -1.09388e-17)
(-2.29207 2.38825 6.34566e-19)
(-4.17954 0.400274 -1.83978e-18)
(-4.10141 0.559528 0)
(-3.80065 0.68488 3.82548e-18)