/*--------------------------------*- C++ -*----------------------------------*\
| =========                 |                                                 |
| \\      /  F ield         | OpenFOAM: The Open Source CFD Toolbox           |
|  \\    /   O peration     | Version:  4.0                                   |
|   \\  /    A nd           | Web:      www.OpenFOAM.org                      |
|    \\/     M anipulation  |                                                 |
\*---------------------------------------------------------------------------*/
FoamFile
{
    version     2.0;
    format      ascii;
    class       volScalarField;
    location    "50";
    object      epsilon;
}
// * * * * * * * * * * * * * * * * * * * * * * * * * * * * * * * * * * * * * //

dimensions      [0 2 -3 0 0 0 0];

internalField   nonuniform List<scalar> 
3072
(
33.6838
55.8585
165.132
263.486
321.171
360.894
387.809
406.992
419.383
432.246
429.774
427.24
143.527
146.223
198.497
228.651
238.692
241.036
236.555
231.47
226.689
223.228
218.672
214.458
215.658
184.912
191.61
194.433
192.717
185.46
178.683
174.251
172.048
171.751
172.402
173.655
251.953
179.949
170.646
164.726
157.178
150.463
147.106
146.89
149.475
154.168
160.285
167.003
267.656
163.623
148.252
140.907
134.076
130.644
130.334
133.079
138.433
145.893
154.965
165
254.71
147.529
130.394
123.22
118.622
117.57
119.202
123.618
130.297
138.927
149.366
161.294
241.867
134.184
117.239
110.378
107.637
107.786
110.564
115.504
122.139
130.353
140.332
152.307
223.93
123.614
108.026
101.512
99.7243
100.517
103.455
107.941
113.482
120.037
128.103
138.462
199.049
117.137
103.92
96.4066
94.5616
95.3029
97.6912
101.102
105.015
109.441
115.058
123.008
179.012
114.412
106.049
96.7618
92.9522
92.2738
93.2488
95.2368
97.4748
100.065
103.799
109.821
142.56
114.943
108.613
98.7584
93.4104
90.8754
90.1806
90.5248
91.3547
92.8923
96.1064
101.513
154.599
127.048
119.111
104.448
95.5917
90.9967
88.2076
87.2419
87.3779
88.7728
92.8229
97.8937
414.597
394.687
365.7
331.502
293.062
252.243
210.033
167.07
124.401
86.5653
55.7514
71.7736
209.308
201.864
191.711
179.592
166.746
155.13
148.596
147.615
153.279
163.006
176.431
224.625
174.737
174.033
170.22
163.58
154.829
146.054
142.334
143.038
152.809
176.185
224.096
342.554
173.056
176.434
177.303
174.425
167.492
158.378
151.565
149.702
157.585
183.384
251.919
442.909
174.898
183.163
187.334
187.925
183.348
175.121
166.78
163.044
169.016
195.309
272.168
529.25
173.859
185.344
193.934
198.132
198.001
192.654
185.046
180.598
185.567
211.963
294.852
612.318
165.905
179.719
191.881
200.208
203.932
203.441
200.127
197.664
203.316
230.005
317.579
697.17
151.361
165.602
179.388
191.574
200.819
205.558
206.58
208.615
217.978
247.423
340.991
792.448
133.951
146.637
159.242
172.03
184.79
195.578
203.819
211.443
225.36
258.522
358.998
878.331
118.552
128.175
136.532
145.84
158.275
172.173
186.033
200.759
221.646
261.681
372.264
962.365
108.019
113.154
115.148
118.172
126.415
139.61
155.67
174.733
200.658
246.217
370.206
1052.38
100.229
98.5598
94.0257
91.1566
94.3522
104.501
119.093
138.432
164.907
211.242
343.621
1136.33
37.3044
61.2416
169.407
264.47
320.522
360.445
389.535
410.731
424.029
427.937
433.121
427.778
149.295
147.745
198.973
228.029
238.04
240.764
237.193
232.495
227.528
223.171
219.495
214.936
219.729
185.706
192.083
194.588
192.673
185.527
178.975
174.619
172.342
171.954
172.664
173.899
257.656
180.846
171.033
164.816
157.109
150.424
147.13
146.94
149.528
154.194
160.292
166.96
269.396
164.103
148.427
140.84
133.901
130.465
130.169
132.92
138.257
145.66
154.665
164.601
262.211
148.315
130.402
123.019
118.34
117.268
118.886
123.284
129.907
138.461
148.784
160.574
247.667
134.984
117.173
110.082
107.268
107.383
110.133
115.026
121.594
129.707
139.559
151.368
229.65
124.469
107.923
101.181
99.3163
100.053
102.942
107.366
112.826
119.277
127.209
137.403
201.419
117.691
103.801
96.0767
94.143
94.8082
97.1255
100.46
104.283
108.594
114.065
121.833
180.849
114.674
105.886
96.4221
92.5187
91.7553
92.6532
94.5531
96.6883
99.1431
102.686
108.471
142.426
114.934
108.33
98.3888
92.9631
90.3465
89.5547
89.8142
90.5305
91.8952
94.8303
99.9213
154.071
126.508
118.482
103.969
95.1215
90.472
87.6017
86.4739
86.5001
87.6562
91.326
96.1002
416.146
395.369
366.721
332.282
293.947
252.881
210.763
167.574
124.867
86.8479
55.9512
71.9736
209.881
202.317
192.107
179.911
167.021
155.364
148.823
147.85
153.576
163.368
176.876
225.207
174.958
174.207
170.341
163.654
154.878
146.115
142.415
143.161
153.009
176.497
224.6
343.395
172.942
176.254
177.085
174.176
167.256
158.191
151.463
149.672
157.676
183.636
252.436
443.974
174.391
182.546
186.684
187.278
182.761
174.641
166.462
162.861
169.009
195.508
272.674
530.521
172.949
184.362
192.888
197.072
197.017
191.838
184.458
180.229
185.432
212.079
295.342
613.713
164.792
178.469
190.58
198.934
202.73
202.374
199.283
197.102
203.028
230.042
318.013
698.806
150.131
164.261
178.023
190.231
199.537
204.409
205.629
207.919
217.591
247.374
341.419
794.244
132.608
145.246
157.962
170.872
183.709
194.561
202.908
210.724
224.905
258.421
359.42
880.492
117.017
126.663
135.352
144.983
157.602
171.557
185.431
200.212
221.242
261.552
372.709
964.984
106.277
111.552
114.08
117.556
126.136
139.458
155.518
174.534
200.463
246.206
370.725
1055.4
98.5164
97.1691
93.302
90.7953
94.3532
104.686
119.308
138.587
164.991
211.412
344.205
1140.13
37.767
62.3576
171.773
267.769
324.362
363.959
391.01
411.056
424.913
436.17
433.573
430.813
150.459
148.422
200.914
230.88
240.418
242.079
238.284
233.165
228.61
224.848
220.313
216.07
221.098
186.705
193.645
196.25
194.128
186.573
179.869
175.421
173.226
172.893
173.564
174.846
258.19
181.849
172.197
166.024
158.17
151.295
147.92
147.712
150.339
155.062
161.221
167.976
273.239
165.345
149.433
141.808
134.761
131.232
130.904
133.657
139.032
146.508
155.602
165.656
259.435
149.084
131.272
123.823
119.068
117.955
119.556
123.956
130.614
139.222
149.645
161.558
246.007
135.606
117.888
110.759
107.894
107.984
110.713
115.601
122.175
130.319
140.229
152.149
224.991
124.534
108.502
101.751
99.8543
100.562
103.426
107.825
113.26
119.692
127.633
137.886
200.139
117.886
104.2
96.5026
94.5838
95.2261
97.5135
100.808
104.578
108.834
114.267
122.044
180.904
115.089
106.283
96.7989
92.8447
92.0671
92.9389
94.7972
96.8727
99.2598
102.752
108.532
143.253
115.46
108.743
98.7085
93.2355
90.5447
89.7241
89.9547
90.6232
91.9368
94.8504
99.9673
155.366
127.357
118.977
104.219
95.3082
90.5991
87.6624
86.509
86.5109
87.6514
91.3437
96.1593
417.889
397.995
368.317
334.013
295.019
253.885
211.299
167.975
125.03
86.9496
55.9926
72.084
210.892
203.348
193.045
180.787
167.781
156.022
149.383
148.365
154.025
163.805
177.285
225.665
175.937
175.212
171.332
164.603
155.75
146.859
143.077
143.747
153.538
177.027
225.19
344.244
174.047
177.424
178.276
175.347
168.346
159.158
152.276
150.383
158.285
184.215
253.123
445.166
175.573
183.844
188.041
188.648
184.056
175.798
167.431
163.688
169.7
196.139
273.416
531.992
174.094
185.655
194.287
198.508
198.43
193.145
185.58
181.176
186.225
212.798
296.14
615.474
165.728
179.585
191.861
200.317
204.135
203.701
200.477
198.14
203.925
230.837
318.914
700.724
150.735
165.028
178.963
191.339
200.772
205.673
206.818
208.978
218.524
248.246
342.407
796.362
132.889
145.633
158.465
171.537
184.567
195.563
203.963
211.743
225.852
259.313
360.46
882.567
117.11
126.792
135.481
145.184
157.989
172.155
186.183
201.036
222.077
262.42
373.747
966.955
106.32
111.553
113.965
117.418
126.116
139.646
155.903
175.062
201.074
246.887
371.626
1057.59
98.483
97.0286
92.9987
90.4844
94.1087
104.606
119.4
138.826
165.333
211.848
344.934
1141.96
37.3336
60.6584
169.113
265.424
321.831
361.109
389.451
411.408
425.968
432.958
431.768
429.336
149.454
148.523
200.019
229.487
239.175
241.643
237.756
233.28
228.431
224.037
219.759
215.451
220.535
186.543
193.07
195.616
193.614
186.267
179.575
175.198
172.853
172.369
173.001
174.204
256.929
181.552
171.837
165.693
157.896
151.078
147.666
147.407
149.874
154.463
160.509
167.161
271.606
164.913
149.158
141.618
134.612
131.051
130.672
133.291
138.522
145.855
154.814
164.739
257.565
148.616
131.09
123.745
118.979
117.83
119.326
123.603
130.124
138.599
148.865
160.635
244.208
135.193
117.815
110.773
107.875
107.919
110.545
115.321
121.784
129.805
139.578
151.336
223.86
124.259
108.497
101.837
99.9135
100.571
103.351
107.662
113.016
119.363
127.194
137.3
198.999
117.682
104.397
96.7446
94.7438
95.3317
97.5489
100.779
104.497
108.7
114.058
121.719
179.463
114.846
106.549
97.1162
93.1525
92.2936
93.1048
94.9022
96.9368
99.2852
102.72
108.408
142.801
115.298
109.022
99.1159
93.6191
90.9126
90.014
90.1929
90.8129
92.0758
94.9129
99.959
155.292
127.316
119.377
104.793
95.819
91.0552
88.0798
86.8424
86.8105
87.8793
91.4605
96.2427
416.623
396.638
367.735
333.243
294.75
253.775
211.253
168.214
125.133
87.1373
56.0524
72.1374
210.239
202.722
192.52
180.337
167.457
155.815
149.267
148.299
154.013
163.816
177.323
225.751
175.236
174.5
170.671
164.028
155.288
146.545
142.853
143.605
153.46
176.972
225.143
344.2
173.174
176.544
177.41
174.562
167.701
158.662
151.934
150.137
158.136
184.115
253.02
444.965
174.563
182.784
187.001
187.593
183.246
175.166
166.985
163.369
169.497
196.002
273.27
531.641
173.037
184.523
193.164
197.43
197.494
192.4
185.035
180.79
185.969
212.612
295.949
614.939
164.757
178.483
190.693
199.188
203.113
202.861
199.842
197.697
203.618
230.627
318.671
700.107
149.979
164.111
177.915
190.22
199.7
204.775
206.121
208.477
218.2
248.018
342.176
795.67
132.419
145.018
157.695
170.601
183.556
194.631
203.208
211.198
225.485
259.07
360.214
881.862
116.891
126.5
135.084
144.577
157.182
171.307
185.431
200.459
221.681
262.134
373.486
966.239
106.284
111.538
113.94
117.203
125.615
138.984
155.223
174.488
200.659
246.582
371.361
1056.61
98.6488
97.2675
93.2267
90.5305
93.8645
104.144
118.84
138.287
164.91
211.519
344.664
1140.98
410.671
225.695
151.532
117.948
101.627
92.8629
88.0668
85.3703
85.488
88.1545
92.6617
93.8647
311.42
270.218
199.132
146.906
116.324
99.2822
89.9923
85.2588
85.6502
89.6972
90.8467
87.4863
200.931
217.04
196.687
159.455
129.302
108.119
94.1794
86.963
88.4902
89.3229
84.6076
71.3472
139.815
159.896
165.447
153.785
130.932
111.924
100.499
96.9755
92.7113
81.5932
61.1711
39.3006
90.8121
81.7337
70.7715
65.2066
66.4572
73.3505
84.5841
100.775
123.061
158.678
242.312
576.17
75.7184
59.5589
49.3561
45.8416
47.1241
51.5393
58.9559
70.4977
86.9578
111.618
156.576
282.474
50.8472
39.4454
36.16
36.4865
38.1168
40.9549
45.4422
52.6279
63.3961
79.8771
105.084
162.241
31.0442
30.8847
31.9228
33.5736
35.3453
37.8305
41.4305
46.7149
54.4186
66.0502
83.1066
112.466
408.494
224.01
150.469
117.337
101.14
92.3513
87.4856
84.5404
84.5129
86.8068
90.9457
92.1028
310.485
269.152
198.245
146.344
115.908
98.8058
89.4722
84.4054
84.5665
88.1367
89.1831
85.9964
200.598
216.379
195.974
158.951
128.93
107.647
93.7247
86.1653
87.3845
87.9679
83.3748
70.5801
139.597
159.483
164.855
153.226
130.502
111.5
99.9286
96.1303
91.6898
80.5902
60.5471
39.2467
89.2757
80.9988
70.4117
65.1065
66.5154
73.5959
84.9139
101.097
123.329
158.981
242.828
577.631
74.7843
59.3939
49.1892
45.7303
47.1087
51.6652
59.188
70.7846
87.2513
111.921
156.994
283.176
50.6251
39.3675
36.0186
36.3425
38.0432
40.9707
45.5481
52.8087
63.6279
80.1388
105.413
162.69
30.933
30.7075
31.7419
33.426
35.2597
37.8153
41.4842
46.8348
54.5909
66.2669
83.382
112.816
409.69
224.74
150.862
117.458
101.174
92.3477
87.4545
84.4838
84.4484
86.7709
90.9619
92.0923
311.417
269.928
198.634
146.313
115.704
98.5832
89.2908
84.2728
84.4467
88.0821
89.1444
85.8972
201.22
217.09
196.469
159.137
128.844
107.445
93.4801
85.9578
87.2018
87.8622
83.2374
70.3081
140.059
160.067
165.452
153.629
130.588
111.428
99.7373
95.9692
91.6042
80.486
60.3758
38.9864
89.1773
80.6547
70.0381
64.819
66.2934
73.4726
84.8844
101.159
123.46
159.157
243.099
578.606
74.5204
58.9946
48.9294
45.6247
47.0554
51.6372
59.1719
70.7905
87.2761
111.95
157.005
283.254
50.3385
39.1912
36.0254
36.3967
38.1007
41.005
45.5562
52.8018
63.6115
80.1048
105.333
162.564
30.886
30.793
31.8844
33.5513
35.3444
37.8588
41.4911
46.8118
54.5443
66.1928
83.2578
112.638
411.018
226.131
151.901
118.319
101.892
92.952
87.9686
84.8958
84.8212
87.03
91.162
92.3646
311.595
270.348
199.421
147.309
116.643
99.3815
89.9343
84.7459
84.8708
88.385
89.5011
86.3453
200.953
216.974
196.751
159.624
129.508
108.12
94.1031
86.4466
87.6161
88.2981
83.7505
70.9752
139.756
159.712
165.176
153.623
130.907
111.805
100.138
96.3282
92.0217
81.0146
60.9871
39.4448
89.5336
81.1349
70.3504
64.8534
66.1518
73.1473
84.4476
100.692
123.05
158.818
242.823
578.21
75.0968
59.4701
49.1131
45.5769
46.9169
51.401
58.8593
70.4285
86.9222
111.651
156.76
283.033
50.7962
39.3956
35.9878
36.2941
37.972
40.8544
45.3724
52.5757
63.3585
79.8704
105.15
162.458
30.9708
30.7313
31.7494
33.4313
35.2441
37.7623
41.3855
46.6865
54.3989
66.0525
83.1605
112.611
127.471
135.678
135.409
126.277
111.11
100.592
93.5866
79.0831
53.4845
35.8636
25.8868
19.8977
115.186
117.797
113.658
104.421
94.9502
86.8284
72.3731
49.4977
31.6862
22.5805
18.1398
17.2842
105.524
105.268
99.5395
91.7657
83.6864
71.5861
52.3486
33.8395
23.025
17.8995
15.6864
17.1572
98.3233
96.1975
89.8034
81.8959
71.6526
55.977
38.0758
25.308
18.7255
15.5535
14.4512
20.1048
24.9299
29.9925
31.5493
33.2567
35.8698
39.7891
45.2134
51.9805
60.597
72.3567
88.7877
110.512
23.8161
26.8332
28.5577
31.1702
34.955
40.1247
46.7504
54.8214
64.4574
76.3796
91.1811
106.678
23.2029
23.6367
25.6978
28.9641
33.4954
39.5466
47.0676
55.9935
66.2594
78.0643
91.2072
101.537
24.6888
20.3698
22.6084
26.2162
31.1153
37.6154
45.7175
55.2236
65.8886
77.5563
89.4865
96.3008
127.151
135.235
134.83
125.678
110.622
99.9287
92.5665
77.837
52.7982
35.55
25.7233
19.848
114.859
117.411
113.187
103.92
94.3425
85.8294
71.1447
48.7219
31.3519
22.409
18.0224
17.2091
105.234
104.956
99.1634
91.2612
82.9105
70.5153
51.4588
33.3969
22.8228
17.7707
15.579
17.0734
98.0105
95.8759
89.4099
81.3025
70.7953
55.0885
37.5182
25.0495
18.588
15.4489
14.3547
19.992
24.7768
29.7326
31.3796
33.1539
35.8193
39.7918
45.2721
52.0975
60.7671
72.5762
89.0644
110.864
23.6813
26.6483
28.4332
31.0878
34.9113
40.1255
46.8029
54.9329
64.6271
76.6066
91.4678
107.036
23.0874
23.5033
25.6019
28.8921
33.4521
39.5433
47.1177
56.108
66.441
78.3151
91.5245
101.889
24.6359
20.2962
22.5417
26.1597
31.0796
37.6158
45.7717
55.3461
66.0854
77.8304
89.8368
96.6824
127.612
135.762
135.351
126.108
110.65
99.9076
92.6331
78.044
52.86
35.5542
25.7606
19.8945
115.277
117.845
113.556
104.151
94.4099
86.0562
71.5027
48.9598
31.4767
22.5171
18.1506
17.3321
105.594
105.285
99.4272
91.4714
83.1618
70.9459
51.8558
33.6338
22.9766
17.9118
15.735
17.2222
98.3804
96.196
89.6913
81.6232
71.2313
55.5819
37.8719
25.2577
18.7357
15.5877
14.5079
20.2076
24.8729
29.9973
31.5438
33.2475
35.8617
39.7864
45.2286
52.017
60.6548
72.4282
88.8649
110.587
23.7678
26.8134
28.5354
31.1457
34.9266
40.0991
46.732
54.8126
64.4613
76.3913
91.192
106.687
23.1509
23.5964
25.6625
28.9284
33.4542
39.5035
47.0291
55.9572
66.2294
78.0367
91.1733
101.496
24.6094
20.3166
22.5667
26.1758
31.0698
37.5653
45.6668
55.1742
65.8434
77.5115
89.4335
96.2314
127.248
135.376
135.032
125.844
110.866
100.116
92.8586
78.4025
53.2649
35.7783
25.8456
19.8872
114.887
117.464
113.278
103.994
94.4819
86.0718
71.5916
49.1414
31.567
22.5017
18.0778
17.2367
105.197
104.932
99.1639
91.278
83.0355
70.8018
51.8155
33.6266
22.9239
17.8184
15.6183
17.1035
97.9359
95.8098
89.3692
81.3183
70.9433
55.3489
37.7448
25.1676
18.6389
15.4786
14.3876
20.0352
24.7593
29.7688
31.4171
33.1755
35.8113
39.7485
45.187
51.9684
60.6019
72.3903
88.8696
110.67
23.6625
26.6695
28.4566
31.1036
34.907
40.0898
46.7296
54.817
64.4756
76.4282
91.2599
106.837
23.067
23.51
25.6172
28.9066
33.4539
39.5196
47.057
56.0053
66.2998
78.1377
91.2847
101.691
24.6123
20.2892
22.5499
26.1718
31.0851
37.6018
45.7249
55.2586
65.9582
77.6628
89.6011
96.4881
91.9646
88.7528
81.552
72.0847
59.3188
43.1817
28.9335
20.3222
16.0486
13.8201
13.2171
23.7179
85.0956
81.2609
73.1867
62.1834
48.3631
33.8766
23.0986
17.1116
14.1244
12.3721
11.6573
20.7016
77.0939
72.9502
64.3828
52.7572
39.4229
27.3081
19.1876
14.8469
12.63
11.1686
10.3242
17.4122
68.0629
63.884
55.455
44.2436
32.3731
22.5906
16.3988
13.1319
11.4211
10.174
9.22889
14.8604
58.5224
54.5485
46.8867
36.8396
26.847
19.0887
14.3008
11.7707
10.4223
9.3556
8.31936
12.4396
49.1432
45.611
39.0912
30.6
22.5136
16.4201
12.6698
10.6656
9.58998
8.68156
7.55208
10.2205
40.5766
37.6628
32.3833
25.5227
19.1476
14.377
11.3972
9.77264
8.89937
8.12304
6.89432
8.09531
33.4186
31.1233
26.9832
21.5945
16.6242
12.8646
10.4445
9.0833
8.34187
7.65158
6.31944
6.04247
28.0539
26.2733
23.0337
18.8308
14.9146
11.887
9.87109
8.66788
7.95221
7.25512
5.78816
4.09048
24.9139
23.4678
20.8236
17.4517
14.2249
11.6366
9.80526
8.60483
7.79794
7.00004
5.166
2.35268
25.7731
24.2926
21.8377
18.7598
15.6818
13.1213
11.1299
9.64164
8.40516
7.07438
4.59033
1.01811
48.7799
46.1475
41.9579
36.6273
31.0437
25.497
20.727
16.7901
13.2322
9.48483
4.71436
0.843851
29.3598
17.5742
19.6393
23.2456
28.1206
34.632
42.8684
52.6233
63.5198
74.9907
85.524
90.6498
24.5327
14.8667
16.8729
20.2741
24.83
30.9814
38.9128
48.4382
59.0816
70.0772
79.4908
83.941
19.7574
12.3937
14.3895
17.4736
21.5303
27.0592
34.3305
43.217
53.2144
63.456
71.8808
75.9843
16.014
10.3629
12.2661
14.9765
18.4514
23.2166
29.5978
37.5378
46.5616
55.7877
63.2382
67.0421
12.9266
8.71496
10.5225
12.8557
15.7472
19.7202
25.1169
31.9391
39.7747
47.7946
54.233
57.6798
10.2804
7.4059
9.147
11.1369
13.5007
16.7408
21.1807
26.854
33.4228
40.1531
45.5478
48.5579
7.98177
6.3848
8.11193
9.81623
11.7437
14.3679
17.9676
22.5801
27.9336
33.4054
37.7789
40.2914
5.92367
5.61259
7.38886
8.88282
10.4874
12.644
15.5731
19.2937
23.5834
27.9272
31.3696
33.358
4.06682
5.06346
7.00851
8.41047
9.81445
11.6346
14.0791
17.12
20.5548
23.959
26.6192
28.119
2.42959
4.65605
6.92484
8.40474
9.81978
11.538
13.7403
16.3545
19.1789
21.8597
23.9216
25.0091
1.09924
4.40268
7.46766
9.54904
11.3988
13.3981
15.7378
18.3276
20.9339
23.2632
25.0013
25.8702
0.840496
4.98924
10.938
16.4468
21.6915
26.9966
32.2816
37.2605
41.8561
45.3848
47.6923
48.751
91.5765
88.3399
81.0489
71.4042
58.5163
42.5363
28.5885
20.1588
15.9477
13.734
13.1333
23.6055
84.6117
80.7246
72.5691
61.4735
47.6813
33.4206
22.8719
16.9976
14.0444
12.298
11.5885
20.6142
76.542
72.3248
63.7031
52.077
38.8675
26.9766
19.0254
14.7594
12.5617
11.1005
10.2593
17.3346
67.4897
63.233
54.7782
43.6303
31.9248
22.3376
16.2729
13.0588
11.3591
10.1083
9.16471
14.7849
57.9761
53.9369
46.2658
36.3131
26.4857
18.8876
14.1966
11.7057
10.3634
9.28978
8.25288
12.3705
48.6492
45.0808
38.5574
30.1642
22.2219
16.2548
12.5792
10.6052
9.53239
8.61459
7.48186
10.1538
40.1672
37.2282
31.9464
25.1713
18.9112
14.2374
11.3152
9.71446
8.84195
8.05467
6.81934
8.03416
33.0821
30.7735
26.6343
21.3122
16.4296
12.7427
10.3673
9.02526
8.28358
7.58217
6.23937
5.98814
27.766
25.9845
22.7519
18.5988
14.7493
11.7763
9.79397
8.60609
7.89048
7.18415
5.70635
4.04701
24.6436
23.2136
20.5816
17.2487
14.0724
11.5265
9.72282
8.53654
7.7317
6.92689
5.08559
2.32417
25.4871
24.026
21.5914
18.5487
15.515
12.9911
11.0263
9.552
8.32285
6.99325
4.51185
1.00175
48.2453
45.6352
41.482
36.2086
30.6954
25.2202
20.5193
16.6142
13.0956
9.36993
4.62712
0.822643
29.3164
17.5358
19.5951
23.2052
28.0965
34.641
42.9311
52.7579
63.7378
75.2993
85.9267
91.0917
24.5104
14.8439
16.8441
20.2476
24.8175
30.9998
38.9839
48.5835
59.3173
70.4139
79.944
84.4501
19.7391
12.3794
14.3714
17.4582
21.5275
27.0851
34.407
43.3677
53.4597
63.812
72.3692
76.546
16.0067
10.3543
12.2554
14.969
18.4556
23.2468
29.6749
37.6867
46.8056
56.1466
63.7393
67.6287
12.9186
8.70971
10.5168
12.8537
15.7557
19.7517
25.1904
32.079
40.0059
48.1398
54.7192
58.2594
10.2759
7.40284
9.14446
11.1385
13.5115
16.7712
21.2474
26.9795
33.632
40.4688
45.9965
49.1003
7.97486
6.38282
8.11132
9.81997
11.7555
14.3961
18.0261
22.6889
28.1154
33.6824
38.1739
40.7755
5.91768
5.61109
7.38927
8.88774
10.4994
12.6696
15.6236
19.3861
23.7374
28.1627
31.7056
33.7745
4.06111
5.06186
7.00884
8.41581
9.82631
11.6583
14.1232
17.1993
20.6851
24.1579
26.9005
28.4701
2.42652
4.65383
6.92457
8.40941
9.83076
11.56
13.7807
16.4257
19.295
22.0329
24.1622
25.3099
1.0983
4.40022
7.4651
9.551
11.4072
13.4194
15.7796
18.4011
21.0536
23.4358
25.2325
26.1629
0.840443
4.9879
10.9291
16.4366
21.6871
27.0158
32.3501
37.3807
42.0699
45.6853
48.0806
49.2601
92.0105
88.7375
81.4442
71.8709
59.0541
43.0096
28.8888
20.3378
16.0815
13.861
13.2703
23.8349
85.1347
81.2391
73.0974
62.0502
48.2486
33.8488
23.1287
17.1537
14.1652
12.4136
11.7023
20.7786
77.1432
72.943
64.3338
52.7097
39.42
27.358
19.2493
14.8981
12.6723
11.2086
10.364
17.4791
68.1382
63.913
55.4597
44.2697
32.4392
22.6763
16.4714
13.1844
11.4619
10.2117
9.26438
14.9073
58.6305
54.6253
46.9466
36.9206
26.95
19.1874
14.3743
11.8209
10.4604
9.3905
8.35141
12.4784
49.2703
45.7302
39.1951
30.7144
22.6312
16.5195
12.7396
10.7122
9.62476
8.71338
7.58077
10.2451
40.7244
37.8056
32.5133
25.6512
19.2659
14.4707
11.4613
9.81512
8.93077
8.15158
6.9194
8.11219
33.5593
31.2656
27.1198
21.7215
16.7346
12.9496
10.5022
9.1217
8.37006
7.67645
6.34032
6.04895
28.1645
26.3962
23.1628
18.9461
15.0138
11.9622
9.92269
8.70248
7.97729
7.27586
5.80318
4.09106
24.9798
23.5678
20.9367
17.5535
14.3132
11.7045
9.85246
8.637
7.82049
7.01675
5.17289
2.34829
25.8186
24.3756
21.9366
18.8549
15.7688
13.1888
11.1771
9.67371
8.4242
7.08393
4.58845
1.01391
48.8371
46.2664
42.1117
36.7842
31.1955
25.6173
20.7971
16.8322
13.2427
9.47786
4.69666
0.839042
29.255
17.5207
19.5979
23.206
28.0769
34.5829
42.8161
52.5701
63.4678
74.9381
85.4623
90.5778
24.4596
14.8215
16.836
20.2387
24.7914
30.938
38.8656
48.39
59.0348
70.0318
79.4437
83.8893
19.7003
12.3583
14.359
17.444
21.4981
27.0234
34.2919
43.1783
53.1787
63.4258
71.8582
75.9644
15.9768
10.336
12.2421
14.9528
18.4259
23.1887
29.5684
37.51
46.5391
55.7749
63.2417
67.0555
12.8964
8.695
10.5044
12.8376
15.7278
19.6996
25.0962
31.9215
39.7646
47.7978
54.2582
57.7204
10.2587
7.39188
9.13408
11.1238
13.4866
16.7264
21.1673
26.845
33.4226
40.168
45.5873
48.6161
7.96404
6.37582
8.10352
9.80753
11.7341
14.3588
17.9602
22.5779
27.9405
33.4278
37.8255
40.358
5.91078
5.60799
7.38432
8.87786
10.4817
12.6393
15.5705
19.2965
23.5949
27.9532
31.4176
33.4258
4.05688
5.06255
7.00725
8.4085
9.81169
11.6339
14.0802
17.1269
20.5692
23.9867
26.6652
28.1827
2.42566
4.65744
6.92586
8.4049
9.8197
11.5403
13.7448
16.3646
19.1962
21.8882
23.965
25.0669
1.09854
4.40518
7.4709
9.55133
11.4007
13.4037
15.746
18.342
20.9558
23.2951
25.0447
25.926
0.843031
4.99164
10.9426
16.4494
21.6961
27.0079
32.304
37.2911
41.9048
45.4467
47.7665
48.8387
91.4984
88.2738
81.0217
71.4553
58.6785
42.7373
28.7243
20.2219
15.9763
13.7551
13.1598
23.6498
84.5591
80.6933
72.5868
61.5659
47.8405
33.5685
22.9567
17.035
14.0633
12.3152
11.6083
20.6458
76.5305
72.3432
63.7707
52.2001
39.0149
27.0885
19.0838
14.7851
12.5769
11.1164
10.2769
17.3576
67.5209
63.2983
54.8851
43.769
32.0578
22.4269
16.3178
13.0794
11.373
10.1241
9.18172
14.806
58.0417
54.0352
46.3949
36.4538
26.6038
18.962
14.234
11.7241
10.3771
9.30596
8.27014
12.3879
48.7368
45.1939
38.6925
30.2968
22.3253
16.3186
12.6121
10.6225
9.54604
8.63094
7.49954
10.1707
40.2628
37.3417
32.0748
25.2896
19.0002
14.2927
11.3449
9.73088
8.85535
8.07074
6.83726
8.04893
33.1743
30.8777
26.7484
21.414
16.5053
12.7908
10.3943
9.04096
8.29654
7.59737
6.25716
6.00147
27.8484
26.0755
22.8499
18.6847
14.8137
11.8182
9.81886
8.62129
7.90298
7.19821
5.72284
4.05698
24.7146
23.2927
20.6654
17.3222
14.1287
11.5645
9.74657
8.55181
7.74388
6.93979
5.09969
2.32989
25.5557
24.1023
21.6696
18.6183
15.5702
13.0297
11.0513
9.56946
8.33552
7.00477
4.52381
1.00485
48.3571
45.7615
41.6117
36.3263
30.7937
25.2908
20.5575
16.6422
13.1091
9.37936
4.63625
0.825346
29.2802
17.5244
19.5996
23.2157
28.1049
34.636
42.8992
52.6904
63.6335
75.1531
85.7323
90.9288
24.4882
14.8352
16.848
20.2576
24.8283
31.0029
38.9674
48.5383
59.2427
70.3091
79.8177
84.3371
19.732
12.3754
14.3761
17.468
21.5401
27.0949
34.4046
43.3448
53.4158
63.7507
72.3037
76.489
16.0082
10.3546
12.2615
14.9789
18.4693
23.2616
29.6845
37.6836
46.789
56.1216
63.7203
67.6182
12.9256
8.71359
10.5245
12.8639
15.7699
19.7698
25.209
32.092
40.0117
48.1422
54.7313
58.2804
10.2846
7.41006
9.15427
11.1494
13.5261
16.7915
21.2725
27.005
33.6553
40.4915
46.0288
49.1455
7.98541
6.39342
8.12367
9.83224
11.7711
14.4184
18.0563
22.724
28.1529
33.7209
38.2182
40.8239
5.92682
5.62509
7.40461
8.90303
10.5172
12.6949
15.659
19.4296
23.7871
28.2146
31.7601
33.8273
4.06849
5.07915
7.0285
8.43673
9.84797
11.6883
14.1658
17.2518
20.7474
24.2226
26.9662
28.5294
2.43112
4.67305
6.94735
8.43531
9.85926
11.599
13.8349
16.4924
19.373
22.1142
24.2425
25.3796
1.10073
4.4187
7.49258
9.58313
11.4496
13.477
15.8582
18.4954
21.1602
23.5461
25.3399
26.2482
0.844533
5.00434
10.9654
16.4948
21.7801
27.1575
32.5445
37.6152
42.3272
45.9513
48.3357
49.448
)
;

boundaryField
{
    rotor
    {
        Cmu             0.09;
        kappa           0.41;
        E               9.8;
        type            epsilonWallFunction;
        value           nonuniform List<scalar> 
192
(
33.6838
55.8585
165.132
263.486
321.171
360.894
387.809
406.992
419.383
432.246
429.774
427.24
414.597
394.687
365.7
331.502
293.062
252.243
210.033
167.07
124.401
86.5653
55.7514
71.7736
37.3044
61.2416
169.407
264.47
320.522
360.445
389.535
410.731
424.029
427.937
433.121
427.778
416.146
395.369
366.721
332.282
293.947
252.881
210.763
167.574
124.867
86.8479
55.9512
71.9736
37.767
62.3576
171.773
267.769
324.362
363.959
391.01
411.056
424.913
436.17
433.573
430.813
417.889
397.995
368.317
334.013
295.019
253.885
211.299
167.975
125.03
86.9496
55.9926
72.084
37.3336
60.6584
169.113
265.424
321.831
361.109
389.451
411.408
425.968
432.958
431.768
429.336
416.623
396.638
367.735
333.243
294.75
253.775
211.253
168.214
125.133
87.1373
56.0524
72.1374
33.6838
143.527
215.658
251.953
267.656
254.71
241.867
223.93
199.049
179.012
142.56
154.599
72.1374
225.751
344.2
444.965
531.641
614.939
700.107
795.67
881.862
966.239
1056.61
1140.98
37.3044
149.295
219.729
257.656
269.396
262.211
247.667
229.65
201.419
180.849
142.426
154.071
71.7736
224.625
342.554
442.909
529.25
612.318
697.17
792.448
878.331
962.365
1052.38
1136.33
37.767
150.459
221.098
258.19
273.239
259.435
246.007
224.991
200.139
180.904
143.253
155.366
71.9736
225.207
343.395
443.974
530.521
613.713
698.806
794.244
880.492
964.984
1055.4
1140.13
37.3336
149.454
220.535
256.929
271.606
257.565
244.208
223.86
198.999
179.463
142.801
155.292
72.084
225.665
344.244
445.166
531.992
615.474
700.724
796.362
882.567
966.955
1057.59
1141.96
)
;
    }
    stator
    {
        Cmu             0.09;
        kappa           0.41;
        E               9.8;
        type            epsilonWallFunction;
        value           nonuniform List<scalar> 
192
(
48.7799
46.1475
41.9579
36.6273
31.0437
25.497
20.727
16.7901
13.2322
9.48483
4.71436
0.843851
0.840496
4.98924
10.938
16.4468
21.6915
26.9966
32.2816
37.2605
41.8561
45.3848
47.6923
48.751
48.2453
45.6352
41.482
36.2086
30.6954
25.2202
20.5193
16.6142
13.0956
9.36993
4.62712
0.822643
0.840443
4.9879
10.9291
16.4366
21.6871
27.0158
32.3501
37.3807
42.0699
45.6853
48.0806
49.2601
48.8371
46.2664
42.1117
36.7842
31.1955
25.6173
20.7971
16.8322
13.2427
9.47786
4.69666
0.839042
0.843031
4.99164
10.9426
16.4494
21.6961
27.0079
32.304
37.2911
41.9048
45.4467
47.7665
48.8387
48.3571
45.7615
41.6117
36.3263
30.7937
25.2908
20.5575
16.6422
13.1091
9.37936
4.63625
0.825346
0.844533
5.00434
10.9654
16.4948
21.7801
27.1575
32.5445
37.6152
42.3272
45.9513
48.3357
49.448
29.3598
24.5327
19.7574
16.014
12.9266
10.2804
7.98177
5.92367
4.06682
2.42959
1.09924
0.840496
23.7179
20.7016
17.4122
14.8604
12.4396
10.2205
8.09531
6.04247
4.09048
2.35268
1.01811
0.843851
29.3164
24.5104
19.7391
16.0067
12.9186
10.2759
7.97486
5.91768
4.06111
2.42652
1.0983
0.840443
23.6055
20.6142
17.3346
14.7849
12.3705
10.1538
8.03416
5.98814
4.04701
2.32417
1.00175
0.822643
29.255
24.4596
19.7003
15.9768
12.8964
10.2587
7.96404
5.91078
4.05688
2.42566
1.09854
0.843031
23.8349
20.7786
17.4791
14.9073
12.4784
10.2451
8.11219
6.04895
4.09106
2.34829
1.01391
0.839042
29.2802
24.4882
19.732
16.0082
12.9256
10.2846
7.98541
5.92682
4.06849
2.43112
1.10073
0.844533
23.6498
20.6458
17.3576
14.806
12.3879
10.1707
8.04893
6.00147
4.05698
2.32989
1.00485
0.825346
)
;
    }
    front
    {
        type            empty;
    }
    back
    {
        type            empty;
    }
}


// ************************************************************************* //
