/*--------------------------------*- C++ -*----------------------------------*\
| =========                 |                                                 |
| \\      /  F ield         | OpenFOAM: The Open Source CFD Toolbox           |
|  \\    /   O peration     | Version:  4.0                                   |
|   \\  /    A nd           | Web:      www.OpenFOAM.org                      |
|    \\/     M anipulation  |                                                 |
\*---------------------------------------------------------------------------*/
FoamFile
{
    version     2.0;
    format      ascii;
    class       volScalarField;
    location    "50";
    object      k;
}
// * * * * * * * * * * * * * * * * * * * * * * * * * * * * * * * * * * * * * //

dimensions      [0 2 -2 0 0 0 0];

internalField   nonuniform List<scalar> 
3072
(
0.14954
0.293377
0.619059
0.864316
0.994897
1.07969
1.13714
1.17923
1.20835
1.23189
1.22862
1.22508
0.416349
0.743562
0.909886
1.17314
1.39946
1.59631
1.77958
1.94149
2.08749
2.21555
2.31785
2.3895
0.592326
1.14336
1.33142
1.6151
1.84557
2.02277
2.16893
2.29491
2.40908
2.51427
2.60838
2.68673
0.697739
1.30501
1.53468
1.7903
1.97745
2.12323
2.25112
2.37359
2.49624
2.62073
2.74451
2.86139
0.766581
1.35409
1.60148
1.82617
1.99176
2.12831
2.25454
2.38024
2.51057
2.64722
2.78905
2.93116
0.780298
1.34123
1.5982
1.81218
1.97149
2.10473
2.22873
2.35202
2.47946
2.61481
2.76109
2.91692
0.788983
1.3161
1.5761
1.77122
1.92221
2.05216
2.17294
2.28998
2.40671
2.5283
2.66103
2.81124
0.781583
1.27295
1.53137
1.71322
1.86265
1.99046
2.10473
2.20882
2.30529
2.40002
2.5031
2.62678
0.751551
1.20624
1.48947
1.65895
1.80523
1.92776
2.03171
2.11907
2.1913
2.25422
2.31951
2.4032
0.728614
1.13883
1.45957
1.6191
1.75204
1.86311
1.95325
2.02303
2.07281
2.10876
2.14226
2.18838
0.645513
0.998825
1.38941
1.56256
1.68731
1.78613
1.86173
1.9162
1.94961
1.97064
1.98828
2.01099
0.717261
0.948885
1.31518
1.48834
1.60227
1.68823
1.75096
1.79367
1.81813
1.83908
1.85622
1.86135
1.2025
1.16625
1.11095
1.04317
0.963119
0.873521
0.774386
0.665734
0.546924
0.430095
0.32051
0.253468
2.41891
2.41136
2.36604
2.2795
2.15674
2.00612
1.83382
1.64437
1.42238
1.09876
0.740871
0.584136
2.74117
2.75937
2.74676
2.68214
2.56988
2.42
2.2442
2.05595
1.8556
1.59683
1.17052
0.827392
2.96036
3.02426
3.04363
3.01722
2.92965
2.7923
2.62182
2.4364
2.246
2.01677
1.62042
1.04308
3.06477
3.17552
3.23962
3.25348
3.20634
3.09963
2.95249
2.78562
2.61452
2.41477
2.05452
1.24119
3.07452
3.21828
3.33091
3.39458
3.40775
3.35605
3.25168
3.1211
2.98058
2.80869
2.48682
1.43901
2.97692
3.14549
3.29908
3.41773
3.48565
3.50538
3.47916
3.41117
3.32168
3.1881
2.89929
1.64409
2.77705
2.94627
3.12124
3.29022
3.43495
3.53277
3.58057
3.60552
3.60262
3.52709
3.26296
1.87187
2.51718
2.65729
2.8184
3.00598
3.21138
3.40182
3.55749
3.67633
3.77496
3.79413
3.58416
2.08912
2.25816
2.34391
2.44981
2.60752
2.836
3.09619
3.3506
3.58969
3.81238
3.94634
3.83176
2.30805
2.03966
2.05802
2.08291
2.16846
2.37129
2.66044
2.97851
3.30984
3.65712
3.95531
3.99108
2.54084
1.84502
1.79555
1.74601
1.76735
1.9182
2.18661
2.5104
2.87949
3.29577
3.73318
4.05432
2.76499
0.156555
0.310288
0.629864
0.867227
0.995073
1.08127
1.14236
1.18567
1.21316
1.22567
1.23552
1.22747
0.425466
0.755315
0.912872
1.17886
1.40245
1.60253
1.78619
1.94838
2.09422
2.22126
2.32471
2.39566
0.597879
1.15005
1.3396
1.62345
1.85142
2.02828
2.17405
2.30033
2.41452
2.51967
2.61398
2.69213
0.707265
1.31285
1.54291
1.79633
1.9809
2.12585
2.25365
2.37703
2.50024
2.62512
2.74915
2.86597
0.769912
1.35948
1.60651
1.82877
1.99281
2.12908
2.25533
2.38193
2.51316
2.65038
2.79263
2.93472
0.79443
1.34681
1.60221
1.81358
1.97132
2.10416
2.22831
2.35257
2.48088
2.61706
2.76376
2.91985
0.800019
1.32148
1.57873
1.77068
1.92018
2.04966
2.17093
2.28887
2.40672
2.52932
2.66292
2.81362
0.794288
1.27796
1.53228
1.71177
1.85965
1.98681
2.10129
2.20611
2.30361
2.39941
2.50354
2.62813
0.758944
1.20948
1.48949
1.65688
1.80147
1.92297
2.02664
2.11429
2.18714
2.25084
2.31696
2.40163
0.73348
1.141
1.45906
1.61645
1.74753
1.85711
1.94638
2.0158
2.0655
2.10147
2.13499
2.18141
0.648095
0.999109
1.38736
1.55879
1.68168
1.77882
1.85309
1.9065
1.93897
1.95895
1.97547
1.99756
0.716715
0.943947
1.30733
1.48141
1.5949
1.67952
1.7407
1.78178
1.80426
1.823
1.83809
1.84304
1.20537
1.16776
1.11322
1.04493
0.965106
0.875101
0.776179
0.667095
0.548264
0.431
0.321239
0.253899
2.42463
2.41657
2.37066
2.28348
2.1602
2.00914
1.83655
1.64689
1.42473
1.1008
0.742183
0.585092
2.74621
2.76407
2.7509
2.68574
2.57303
2.42285
2.24689
2.05859
1.85819
1.5993
1.17251
0.828707
2.96463
3.02798
3.04699
3.02011
2.93223
2.79478
2.62434
2.43908
2.24883
2.01963
1.62289
1.0447
3.06805
3.17828
3.24192
3.25547
3.2082
3.10165
2.9548
2.78834
2.61762
2.41806
2.05751
1.24311
3.07722
3.22069
3.33292
3.39648
3.40954
3.35783
3.25387
3.12391
2.98395
2.8123
2.49029
1.44114
2.97958
3.14821
3.30179
3.42034
3.48828
3.5082
3.4821
3.41432
3.3253
3.19219
2.90309
1.6466
2.77939
2.94983
3.12591
3.29544
3.43998
3.53727
3.58495
3.60992
3.60699
3.53161
3.26748
1.87468
2.51728
2.66038
2.82492
3.01487
3.2208
3.41033
3.56458
3.68238
3.78074
3.7997
3.58937
2.09257
2.25292
2.34353
2.45592
2.61908
2.85013
3.10975
3.36207
3.59895
3.81996
3.95334
3.8383
2.31233
2.02776
2.05258
2.08598
2.17908
2.388
2.67795
2.99414
3.32276
3.66745
3.96406
3.99912
2.54588
1.82911
1.78823
1.74825
1.77535
1.9336
2.20385
2.52741
2.89486
3.30861
3.74399
4.06378
2.77145
0.157745
0.314443
0.636149
0.874184
1.00188
1.08655
1.14443
1.18793
1.21826
1.23907
1.23593
1.23196
0.42776
0.759092
0.918893
1.18681
1.41127
1.61112
1.79389
1.95675
2.10319
2.23107
2.33353
2.40498
0.600874
1.1563
1.34799
1.6333
1.86162
2.03822
2.18363
2.30992
2.42429
2.52976
2.62429
2.70296
0.70832
1.32037
1.55231
1.80651
1.99105
2.13567
2.26319
2.38656
2.50999
2.63533
2.76
2.87763
0.776988
1.36732
1.61565
1.83843
2.00239
2.13849
2.26444
2.39082
2.52214
2.6599
2.80285
2.94595
0.789906
1.35407
1.61099
1.82279
1.98038
2.11279
2.23651
2.36039
2.48857
2.62481
2.77211
2.92908
0.798634
1.32722
1.58654
1.77888
1.92809
2.05697
2.17753
2.29478
2.41199
2.53429
2.66797
2.81938
0.786702
1.28239
1.53871
1.71871
1.8663
1.99275
2.10627
2.21002
2.30644
2.40131
2.50485
2.62949
0.755383
1.21367
1.49472
1.66255
1.80689
1.92762
2.0302
2.11654
2.18796
2.25025
2.31519
2.39922
0.730999
1.14568
1.46392
1.62107
1.75192
1.86074
1.94889
2.01695
2.06511
2.09951
2.13168
2.17717
0.650229
1.00156
1.39092
1.56235
1.68516
1.78169
1.85492
1.90707
1.93809
1.95668
1.97213
1.99346
0.719354
0.945735
1.30965
1.48382
1.59755
1.68177
1.7421
1.78212
1.80333
1.82097
1.83539
1.83957
1.20916
1.17281
1.11643
1.04853
0.967483
0.877411
0.777541
0.668209
0.548809
0.431417
0.321482
0.254213
2.43389
2.42583
2.37962
2.29194
2.16785
2.01584
1.84215
1.65134
1.42802
1.10277
0.743371
0.585976
2.75748
2.77552
2.76234
2.69675
2.58321
2.43189
2.2546
2.06488
1.86314
1.60295
1.17472
0.830151
2.97714
3.04108
3.06027
3.03318
2.94453
2.80582
2.63385
2.44691
2.25507
2.02448
1.62632
1.04665
3.08029
3.19161
3.25592
3.2697
3.22188
3.1141
2.96567
2.79743
2.62498
2.42394
2.06198
1.2455
3.08792
3.23272
3.34615
3.41003
3.42317
3.37094
3.26565
3.13397
2.99227
2.81918
2.49566
1.44397
2.98659
3.15681
3.31172
3.43217
3.50084
3.52055
3.49379
3.42491
3.33445
3.19977
2.90931
1.64971
2.78156
2.95345
3.13141
3.3032
3.44974
3.54821
3.59584
3.62014
3.61635
3.53981
3.27403
1.87806
2.51493
2.65873
2.82465
3.01694
3.22578
3.41783
3.57359
3.69176
3.78953
3.80771
3.59622
2.09591
2.24813
2.33835
2.45087
2.61551
2.84962
3.11272
3.36778
3.60621
3.82768
3.96054
3.84481
2.31563
2.02285
2.04629
2.07878
2.17217
2.38315
2.67666
2.99618
3.32715
3.67311
3.97001
4.00486
2.54951
1.82473
1.78162
1.74092
1.76806
1.92759
2.20052
2.52681
2.89653
3.31176
3.7479
4.06863
2.77438
0.156738
0.308116
0.628441
0.868187
0.996588
1.08186
1.14265
1.18815
1.2178
1.23315
1.23244
1.22909
0.425829
0.757444
0.912831
1.18016
1.40332
1.603
1.7872
1.94982
2.0958
2.22272
2.32531
2.39678
0.599596
1.15126
1.33956
1.62423
1.85277
2.03013
2.17619
2.30241
2.4163
2.521
2.61487
2.69297
0.705716
1.31375
1.54358
1.79807
1.98354
2.12885
2.2564
2.37909
2.50148
2.62555
2.74895
2.86549
0.773596
1.36076
1.60833
1.83174
1.99644
2.1326
2.25818
2.38365
2.5136
2.64969
2.79102
2.93256
0.785789
1.34759
1.60436
1.81696
1.97528
2.10787
2.2311
2.35397
2.48072
2.61535
2.76066
2.9158
0.79448
1.32196
1.58132
1.77461
1.92447
2.05342
2.17349
2.28983
2.40589
2.52671
2.65865
2.80792
0.783022
1.27774
1.53533
1.7159
1.864
1.99056
2.10383
2.20705
2.30276
2.39669
2.4989
2.62164
0.751989
1.21073
1.49306
1.66121
1.80588
1.92681
2.02937
2.11557
2.18679
2.24874
2.31299
2.3957
0.728589
1.14243
1.4626
1.6209
1.75199
1.86109
1.9494
2.0176
2.06592
2.10043
2.13243
2.17728
0.646953
1.00118
1.39113
1.56329
1.6862
1.78295
1.85646
1.90885
1.9402
1.95905
1.97456
1.99575
0.718682
0.948025
1.31226
1.48651
1.59965
1.68388
1.74446
1.78473
1.80625
1.82415
1.83877
1.84345
1.20643
1.17016
1.115
1.04682
0.966815
0.876979
0.777413
0.668678
0.549056
0.431921
0.321638
0.254284
2.42593
2.41814
2.37258
2.28582
2.16289
2.01208
1.83949
1.64974
1.4272
1.10274
0.743436
0.586023
2.74719
2.76524
2.75248
2.6879
2.57575
2.42596
2.25021
2.06189
1.86126
1.6019
1.17434
0.829974
2.96428
3.0282
3.04767
3.02158
2.93449
2.79766
2.62759
2.44245
2.25207
2.02253
1.62517
1.0462
3.06573
3.17641
3.24108
3.2556
3.20942
3.10373
2.95756
2.79146
2.62082
2.42109
2.0601
1.24479
3.07287
3.21655
3.32952
3.39402
3.40838
3.35845
3.25569
3.12649
2.98694
2.81538
2.49308
1.44296
2.97296
3.14121
3.29478
3.41501
3.48459
3.50607
3.48196
3.416
3.32785
3.19516
2.906
1.64852
2.77135
2.94071
3.11622
3.28625
3.43252
3.53248
3.58262
3.60997
3.60866
3.53429
3.27043
1.87673
2.50945
2.65072
2.81342
3.00224
3.20895
3.40116
3.55897
3.68021
3.78095
3.80176
3.59227
2.09452
2.24716
2.33578
2.44511
2.60493
2.83476
3.09632
3.35235
3.59345
3.81837
3.95431
3.84062
2.31419
2.02506
2.04833
2.07835
2.16672
2.37142
2.66171
2.98092
3.31378
3.66295
3.96334
4.00103
2.54764
1.82919
1.78716
1.74287
1.76615
1.91878
2.18806
2.51287
2.88326
3.30113
3.74067
4.06485
2.77255
2.30849
1.35429
1.34092
1.37872
1.47503
1.55736
1.61365
1.65049
1.67673
1.71407
1.72814
1.71038
2.87573
2.23606
1.6035
1.41357
1.38965
1.40712
1.4546
1.48815
1.5336
1.59022
1.58862
1.53575
2.75986
2.50989
2.07067
1.62479
1.43237
1.3484
1.3372
1.35472
1.426
1.47111
1.43055
1.30035
2.54247
2.4444
2.19196
1.83749
1.56723
1.4
1.35821
1.39197
1.41456
1.3519
1.21138
0.943745
1.64538
1.5088
1.4176
1.41915
1.54111
1.77165
2.05726
2.39799
2.80183
3.27899
3.74978
3.36522
1.39533
1.22237
1.14641
1.19308
1.32843
1.49822
1.71037
1.98217
2.32024
2.74068
3.21397
3.17229
1.09238
0.97729
1.01712
1.12926
1.25641
1.38417
1.53137
1.72354
1.97557
2.30478
2.71672
2.82919
0.804245
0.873528
1.03157
1.17426
1.28038
1.38143
1.49921
1.64843
1.841
2.08898
2.40194
2.5524
2.2975
1.34564
1.3323
1.37004
1.46524
1.54644
1.60118
1.63595
1.65893
1.69338
1.70644
1.6898
2.8699
2.22722
1.59652
1.40648
1.38084
1.39612
1.44039
1.47112
1.5122
1.56757
1.567
1.51802
2.75513
2.50407
2.06628
1.62461
1.42789
1.34232
1.32708
1.34202
1.40668
1.45231
1.4146
1.29244
2.53849
2.43993
2.18795
1.83708
1.5686
1.39917
1.35179
1.38154
1.40055
1.34034
1.20462
0.944314
1.63027
1.50449
1.42094
1.42546
1.55187
1.7851
2.07207
2.41281
2.8155
3.29103
3.76041
3.37452
1.38779
1.22141
1.1482
1.19582
1.33336
1.50558
1.72043
1.99389
2.33241
2.75231
3.22447
3.18202
1.09113
0.977227
1.01729
1.12974
1.25876
1.38796
1.53738
1.73159
1.98503
2.31479
2.72631
2.83818
0.804673
0.87304
1.02939
1.17281
1.28039
1.38342
1.50307
1.65405
1.848
2.09693
2.41014
2.56034
2.30323
1.34716
1.33366
1.37103
1.46669
1.54789
1.60205
1.63599
1.65782
1.69144
1.70377
1.68657
2.87811
2.23033
1.59572
1.40583
1.38047
1.39606
1.44049
1.47048
1.51034
1.56523
1.56406
1.51438
2.76328
2.51012
2.06796
1.62079
1.42535
1.33968
1.32459
1.33915
1.40308
1.44929
1.41125
1.28835
2.54598
2.44624
2.19157
1.83638
1.56506
1.39484
1.34779
1.37862
1.39927
1.33876
1.2024
0.941681
1.62576
1.49795
1.4151
1.42018
1.54771
1.78225
2.07067
2.41284
2.81655
3.2926
3.76221
3.37584
1.38262
1.21658
1.14552
1.19418
1.33262
1.50484
1.71971
1.99352
2.33231
2.7522
3.22392
3.18121
1.08698
0.975489
1.0165
1.1303
1.25954
1.38839
1.53731
1.73125
1.98449
2.31387
2.72471
2.83577
0.803418
0.873082
1.03156
1.17519
1.28206
1.38425
1.50318
1.65362
1.84711
2.0955
2.40803
2.55736
2.30959
1.35263
1.33774
1.37645
1.47053
1.55131
1.60548
1.63962
1.66168
1.6956
1.70883
1.69237
2.87684
2.23793
1.60695
1.41412
1.38699
1.4018
1.44543
1.47566
1.5157
1.57111
1.57093
1.52196
2.761
2.50995
2.07397
1.63232
1.43404
1.34757
1.33168
1.34636
1.41018
1.45677
1.41914
1.29633
2.54275
2.44427
2.1927
1.84159
1.57252
1.40285
1.35522
1.38576
1.40622
1.34571
1.20847
0.946423
1.6324
1.50419
1.41653
1.41871
1.54077
1.77216
2.0589
2.40083
2.80601
3.28501
3.75804
3.37323
1.39053
1.22059
1.1451
1.19149
1.32685
1.49762
1.71089
1.9838
2.32302
2.74483
3.21977
3.17834
1.09233
0.976092
1.01523
1.12675
1.25463
1.3835
1.53168
1.72467
1.9775
2.3077
2.72068
2.83368
0.803977
0.871947
1.02798
1.17172
1.27914
1.38121
1.49978
1.64966
1.84276
2.09141
2.40502
2.55596
2.32181
2.19382
1.94174
1.62326
1.45456
1.40811
1.42855
1.38973
1.20183
0.99781
0.826324
0.549371
2.14365
1.96553
1.70511
1.487
1.41425
1.40048
1.3453
1.17544
0.998618
0.865121
0.721203
0.436277
2.02138
1.82529
1.59335
1.44773
1.39719
1.3452
1.20333
1.03389
0.908825
0.809711
0.674031
0.364129
1.94667
1.75457
1.55379
1.42815
1.35195
1.23101
1.06803
0.935609
0.849264
0.766401
0.63172
0.30289
0.649837
0.994657
1.16505
1.27406
1.36953
1.47878
1.60936
1.76322
1.94163
2.14698
2.33313
2.38891
0.584392
0.977696
1.16121
1.27763
1.38221
1.50394
1.64827
1.81096
1.9834
2.15291
2.25561
2.26028
0.471232
0.904201
1.10626
1.23942
1.3593
1.49396
1.64895
1.81717
1.98589
2.1282
2.18784
2.16251
0.372203
0.814981
1.02763
1.17161
1.30207
1.44569
1.60864
1.78308
1.95261
2.07692
2.12157
2.08891
2.31864
2.19078
1.93966
1.62493
1.45442
1.40521
1.42159
1.37846
1.19363
0.993146
0.82318
0.549706
2.14246
1.96556
1.70779
1.48947
1.41328
1.39606
1.33709
1.16807
0.994208
0.861754
0.718292
0.435862
2.02244
1.82851
1.59909
1.45032
1.39579
1.33937
1.19694
1.02958
0.905796
0.806749
0.671216
0.363708
1.94864
1.75909
1.55985
1.43063
1.34969
1.22611
1.06417
0.933181
0.84703
0.763847
0.62923
0.302206
0.648729
0.991196
1.16238
1.27279
1.36959
1.48029
1.6124
1.76775
1.9474
2.15358
2.33995
2.39569
0.583069
0.974244
1.15875
1.27633
1.38203
1.50492
1.65055
1.81459
1.98825
2.15855
2.2615
2.26592
0.470425
0.901483
1.10415
1.23803
1.35875
1.49442
1.65067
1.82028
1.9903
2.13347
2.19325
2.16737
0.371731
0.813266
1.02601
1.17036
1.30142
1.44591
1.61005
1.78591
1.95685
2.08215
2.12706
2.0937
2.32484
2.19592
1.94178
1.62247
1.45067
1.40177
1.41986
1.37973
1.19527
0.99474
0.825411
0.549911
2.14704
1.96812
1.70634
1.48573
1.41033
1.39465
1.33866
1.17085
0.997123
0.865277
0.7222
0.43714
2.02563
1.82896
1.59576
1.4474
1.39478
1.34144
1.20041
1.03303
0.909362
0.810896
0.675564
0.365208
1.95157
1.7592
1.55737
1.42951
1.3518
1.23006
1.06803
0.936496
0.850495
0.767847
0.633312
0.30371
0.648689
0.994331
1.1653
1.27483
1.37064
1.4805
1.61184
1.76653
1.94559
2.1512
2.33691
2.39222
0.583031
0.977116
1.16102
1.2779
1.38277
1.50485
1.64963
1.81282
1.98564
2.15526
2.25779
2.26217
0.470031
0.903228
1.10565
1.23917
1.35927
1.49415
1.64946
1.81805
1.98701
2.12941
2.18887
2.16318
0.371308
0.813765
1.02673
1.17103
1.30166
1.44544
1.60859
1.78328
1.953
2.07719
2.12179
2.08873
2.32148
2.19341
1.94312
1.62792
1.45649
1.40691
1.42407
1.38354
1.19901
0.99595
0.824862
0.550136
2.14393
1.96685
1.70929
1.49036
1.41411
1.39756
1.34046
1.17202
0.996528
0.862871
0.719315
0.436165
2.02261
1.82836
1.59873
1.44996
1.39595
1.34101
1.19965
1.03156
0.906667
0.80732
0.672062
0.364189
1.9479
1.75793
1.55846
1.42958
1.34961
1.22756
1.0657
0.933858
0.84722
0.764162
0.629916
0.302602
0.647041
0.990621
1.16223
1.27276
1.3693
1.47932
1.61049
1.76479
1.94357
2.14926
2.33555
2.39137
0.581482
0.974069
1.15902
1.27668
1.38221
1.50468
1.64958
1.81268
1.98537
2.15476
2.25685
2.26059
0.469053
0.901265
1.10448
1.23865
1.35943
1.4949
1.65055
1.81923
1.98814
2.12975
2.18816
2.16054
0.37098
0.812989
1.02631
1.17108
1.30238
1.44688
1.6106
1.78558
1.95529
2.0786
2.1218
2.0861
1.89449
1.71715
1.53328
1.39432
1.26809
1.10992
0.960327
0.863069
0.798799
0.722499
0.589451
0.266544
1.83702
1.67683
1.49848
1.33523
1.17083
1.0032
0.876736
0.803824
0.75105
0.677449
0.546282
0.248994
1.7564
1.61258
1.43667
1.25544
1.07347
0.913428
0.808513
0.750843
0.704125
0.63265
0.505976
0.226623
1.64817
1.51985
1.34942
1.16309
0.981575
0.836751
0.74882
0.700371
0.657251
0.588408
0.467956
0.208247
1.51716
1.40437
1.2447
1.06557
0.896335
0.768642
0.693237
0.650336
0.609824
0.544361
0.431055
0.188722
1.37264
1.27614
1.13188
0.968383
0.81716
0.705527
0.63905
0.599454
0.56111
0.499608
0.393678
0.168809
1.22456
1.14427
1.01853
0.874545
0.742568
0.644688
0.584419
0.54667
0.510103
0.452806
0.354108
0.147199
1.08018
1.01438
0.908383
0.784301
0.670272
0.58365
0.527679
0.490722
0.455359
0.402008
0.310332
0.123258
0.940167
0.886706
0.799985
0.694634
0.596506
0.519221
0.466397
0.429447
0.394507
0.344512
0.259743
0.096527
0.795957
0.752638
0.684813
0.597559
0.514283
0.445549
0.395967
0.358946
0.32359
0.276348
0.199233
0.067694
0.619649
0.585001
0.535767
0.473742
0.406802
0.348065
0.303829
0.267967
0.232936
0.189657
0.122329
0.0391865
0.287175
0.276773
0.259632
0.23687
0.211534
0.184596
0.15964
0.138411
0.117528
0.0936815
0.0584008
0.0185198
0.306426
0.731499
0.94225
1.08873
1.22255
1.36881
1.53435
1.71108
1.88057
1.99958
2.04427
2.02083
0.278384
0.657778
0.855807
0.998684
1.12971
1.27255
1.4349
1.6093
1.77683
1.89635
1.94724
1.93976
0.246506
0.587997
0.771316
0.906845
1.03072
1.16539
1.31941
1.48667
1.64905
1.76943
1.82757
1.83494
0.219016
0.524081
0.691455
0.817287
0.931289
1.05467
1.19659
1.35255
1.50607
1.62464
1.68805
1.70613
0.193783
0.465766
0.617447
0.732518
0.835419
0.946086
1.07383
1.21561
1.35704
1.47003
1.53548
1.55979
0.169646
0.412271
0.549298
0.653569
0.745389
0.843396
0.95655
1.08285
1.21013
1.31432
1.3781
1.40482
0.146047
0.362008
0.48595
0.580143
0.661794
0.748273
0.847725
0.958704
1.0711
1.16435
1.22365
1.24983
0.121904
0.312741
0.42538
0.510668
0.583593
0.660213
0.747557
0.844298
0.942155
1.02349
1.07665
1.10034
0.0965087
0.261227
0.364077
0.441724
0.507583
0.576137
0.652973
0.736684
0.820658
0.889613
0.936048
0.956492
0.0696032
0.202852
0.296465
0.367221
0.427167
0.48887
0.556001
0.626927
0.696612
0.752612
0.791975
0.809208
0.0416667
0.128209
0.210458
0.27303
0.326291
0.380499
0.436524
0.491391
0.542222
0.584472
0.61575
0.629609
0.0188759
0.0618203
0.104715
0.13778
0.166099
0.192606
0.217389
0.2394
0.258906
0.27339
0.28273
0.286917
1.89583
1.72076
1.53753
1.39533
1.26549
1.10661
0.958331
0.861669
0.797069
0.720322
0.587258
0.265643
1.83654
1.67801
1.49985
1.33439
1.16824
1.00116
0.875771
0.802928
0.749611
0.675534
0.54442
0.248254
1.75386
1.61106
1.43525
1.25308
1.07098
0.912126
0.80801
0.750151
0.702829
0.63087
0.504242
0.225913
1.64387
1.51613
1.34592
1.1597
0.979144
0.835755
0.748438
0.699713
0.655999
0.586672
0.466269
0.207512
1.51173
1.39929
1.24001
1.06168
0.89394
0.767695
0.692798
0.649625
0.608566
0.542613
0.429343
0.187993
1.36659
1.27047
1.12671
0.96434
0.814757
0.704476
0.63846
0.598647
0.559829
0.497829
0.39192
0.168049
1.21829
1.13852
1.01337
0.870558
0.740131
0.643463
0.583639
0.545757
0.508801
0.451022
0.352314
0.146442
1.07396
1.0088
0.903449
0.78043
0.667771
0.582218
0.526696
0.489705
0.454049
0.400298
0.30855
0.122521
0.934246
0.881424
0.79534
0.690904
0.59396
0.517602
0.465217
0.428353
0.393227
0.342935
0.25812
0.0958963
0.790736
0.74777
0.680497
0.594047
0.511752
0.443805
0.394667
0.357805
0.322396
0.274993
0.197892
0.0672283
0.615363
0.580957
0.532099
0.470641
0.404493
0.346364
0.302543
0.266861
0.231937
0.188664
0.121497
0.0388392
0.28508
0.274714
0.257649
0.235037
0.209911
0.183257
0.158549
0.137451
0.11668
0.0929311
0.0576802
0.0181961
0.306127
0.730476
0.941064
1.08771
1.22197
1.36899
1.53567
1.71384
1.88487
2.00516
2.05021
2.02632
0.27819
0.657092
0.85496
0.997928
1.12929
1.27281
1.43624
1.61209
1.78127
1.90237
1.95391
1.94637
0.246345
0.587522
0.770728
0.906324
1.03048
1.16575
1.32079
1.48949
1.65358
1.77584
1.83495
1.84272
0.218925
0.523757
0.691062
0.816959
0.931204
1.05511
1.19797
1.35532
1.51057
1.63119
1.69598
1.71479
0.193685
0.465544
0.617193
0.732334
0.835446
0.946573
1.07516
1.21824
1.36136
1.47649
1.54353
1.56888
0.169569
0.412115
0.549136
0.653485
0.745486
0.843886
0.957776
1.08526
1.21413
1.32041
1.38589
1.41385
0.145946
0.361889
0.485841
0.580118
0.661924
0.748733
0.848811
0.960828
1.07467
1.16989
1.23084
1.25837
0.121809
0.312641
0.425297
0.51067
0.583726
0.66062
0.748486
0.846121
0.945263
1.02837
1.08302
1.10808
0.0964197
0.261138
0.363997
0.441726
0.507687
0.576472
0.653738
0.738218
0.823319
0.893835
0.94149
0.963268
0.0695457
0.20277
0.296379
0.367196
0.427221
0.489094
0.556612
0.62815
0.698916
0.756137
0.796494
0.814939
0.0416421
0.12815
0.21036
0.272961
0.326261
0.380526
0.436967
0.492417
0.544084
0.587127
0.619195
0.634064
0.0188594
0.0617902
0.104651
0.137701
0.166068
0.192694
0.217701
0.239925
0.259802
0.274609
0.284267
0.288916
1.89969
1.72235
1.53771
1.39731
1.26979
1.1113
0.961949
0.864613
0.800218
0.723955
0.590913
0.267389
1.84216
1.68212
1.50328
1.33915
1.17397
1.00597
0.87901
0.805509
0.752443
0.678809
0.547553
0.249587
1.76135
1.61777
1.4416
1.25996
1.0775
0.916797
0.810905
0.752448
0.705406
0.633885
0.507086
0.227185
1.65287
1.52489
1.35439
1.16791
0.985956
0.840198
0.751074
0.701809
0.658385
0.589501
0.468926
0.208666
1.52158
1.40927
1.24967
1.07045
0.900693
0.771898
0.695259
0.651586
0.610806
0.545308
0.431892
0.189098
1.37659
1.28082
1.13672
0.9731
0.821243
0.708469
0.640816
0.600521
0.561946
0.500394
0.39438
0.169063
1.2278
1.14849
1.02312
0.878903
0.746245
0.647278
0.585946
0.547574
0.510802
0.453426
0.354656
0.147391
1.08259
1.01795
0.912515
0.78815
0.673473
0.585891
0.528989
0.491481
0.455924
0.402461
0.310706
0.123332
0.941827
0.889493
0.8035
0.697855
0.599226
0.521113
0.467514
0.430073
0.394948
0.344796
0.25992
0.0965189
0.797217
0.754625
0.68751
0.600123
0.516495
0.447103
0.396877
0.35945
0.323898
0.276456
0.199199
0.0675938
0.620456
0.586347
0.537454
0.47556
0.408528
0.349244
0.304498
0.268362
0.233088
0.189598
0.122119
0.0390632
0.287425
0.27727
0.260283
0.237565
0.212245
0.185217
0.159998
0.138635
0.117615
0.0936071
0.0582215
0.0184401
0.305723
0.730251
0.941218
1.08796
1.22194
1.36832
1.53399
1.71088
1.88048
1.99945
2.04405
2.02024
0.277855
0.656639
0.854783
0.99786
1.12902
1.27196
1.43441
1.60894
1.77657
1.89609
1.94692
1.93919
0.24606
0.587016
0.770377
0.906047
1.03003
1.16479
1.3189
1.48628
1.64877
1.76924
1.82738
1.83466
0.218688
0.52326
0.690632
0.81656
0.930644
1.0541
1.19612
1.3522
1.50587
1.62461
1.68814
1.70626
0.193491
0.465091
0.61675
0.731884
0.834845
0.945588
1.07343
1.21535
1.35696
1.4702
1.53585
1.56033
0.169416
0.411731
0.548725
0.653039
0.744899
0.842978
0.956228
1.08269
1.21017
1.31465
1.3787
1.40569
0.145842
0.361586
0.485495
0.57972
0.661394
0.747943
0.847486
0.958625
1.07123
1.1648
1.2244
1.25091
0.121746
0.312421
0.425038
0.510348
0.583284
0.65997
0.747396
0.844295
0.942357
1.024
1.07744
1.10151
0.0963846
0.260989
0.363829
0.441505
0.50735
0.575982
0.652876
0.73675
0.820904
0.890159
0.936815
0.957635
0.0695734
0.202672
0.296319
0.367075
0.427014
0.488772
0.55597
0.627022
0.696895
0.753126
0.792669
0.810242
0.041698
0.128075
0.210404
0.272947
0.326202
0.38043
0.436546
0.491521
0.542492
0.584884
0.616299
0.630433
0.0189152
0.0618527
0.104762
0.137799
0.166136
0.192668
0.217494
0.239533
0.259107
0.273636
0.283017
0.287253
1.89472
1.71928
1.53598
1.39436
1.26573
1.10764
0.958931
0.86166
0.796958
0.720508
0.587793
0.265972
1.83559
1.67687
1.49886
1.33405
1.16877
1.0018
0.875822
0.802614
0.7494
0.675666
0.54481
0.248502
1.75342
1.61063
1.4351
1.25347
1.07173
0.912517
0.80781
0.749745
0.702618
0.631001
0.504578
0.226112
1.64406
1.51649
1.3466
1.16069
0.980034
0.836039
0.748168
0.699327
0.655835
0.58683
0.466589
0.207708
1.5125
1.40032
1.24131
1.06305
0.89492
0.767965
0.692561
0.649309
0.608463
0.542806
0.429671
0.188173
1.3678
1.27194
1.1284
0.965913
0.815784
0.704786
0.638303
0.598419
0.559781
0.498049
0.392259
0.168239
1.21972
1.14021
1.01523
0.87219
0.741177
0.643836
0.583582
0.545614
0.508797
0.451249
0.352655
0.146627
1.07545
1.01053
0.905315
0.78203
0.668816
0.58266
0.526738
0.489639
0.454078
0.400501
0.308878
0.122705
0.935674
0.883066
0.797101
0.692406
0.594981
0.518097
0.465356
0.428352
0.39328
0.343102
0.258395
0.096047
0.792034
0.749225
0.682054
0.595396
0.512713
0.444333
0.394873
0.357868
0.322461
0.275108
0.198087
0.0673249
0.616413
0.582136
0.533298
0.471742
0.405339
0.346874
0.302782
0.266992
0.231999
0.188717
0.121585
0.0389044
0.285507
0.275213
0.258182
0.235548
0.21037
0.183603
0.15875
0.137596
0.116779
0.0929817
0.0577452
0.0182347
0.305886
0.730241
0.941348
1.08844
1.22308
1.37028
1.53673
1.71416
1.88398
2.00211
2.04532
2.01904
0.278039
0.656968
0.855249
0.998642
1.13044
1.27428
1.43769
1.61298
1.78106
1.90009
1.94988
1.94038
0.246311
0.587511
0.771035
0.907002
1.03161
1.1673
1.3225
1.49086
1.65405
1.7745
1.83205
1.83841
0.218956
0.523846
0.69139
0.817591
0.932265
1.05666
1.19984
1.35706
1.51165
1.63083
1.69428
1.7121
0.193769
0.465718
0.617545
0.732922
0.836426
0.948061
1.07708
1.22024
1.36296
1.47699
1.54297
1.56759
0.16968
0.412363
0.549519
0.654041
0.746389
0.845293
0.959695
1.08742
1.21611
1.32161
1.3863
1.41368
0.146083
0.362197
0.486262
0.580662
0.662773
0.750063
0.850695
0.96307
1.07693
1.17162
1.23198
1.25904
0.121941
0.312987
0.425754
0.511219
0.584547
0.661895
0.750328
0.848387
0.94769
1.03047
1.08471
1.10934
0.0965386
0.261477
0.364479
0.442277
0.508508
0.577709
0.655547
0.740455
0.825814
0.896127
0.94353
0.964868
0.0696372
0.203051
0.296842
0.36774
0.428023
0.4903
0.558349
0.63032
0.70131
0.758454
0.798653
0.816611
0.0417086
0.128283
0.210751
0.273438
0.32698
0.381608
0.438526
0.494319
0.546153
0.589212
0.621188
0.635496
0.0189262
0.0619358
0.104907
0.138011
0.166562
0.193384
0.218585
0.240932
0.260856
0.275663
0.285258
0.289619
)
;

boundaryField
{
    rotor
    {
        type            kqRWallFunction;
        value           nonuniform List<scalar> 
192
(
0.14954
0.293377
0.619059
0.864316
0.994897
1.07969
1.13714
1.17923
1.20835
1.23189
1.22862
1.22508
1.2025
1.16625
1.11095
1.04317
0.963119
0.873521
0.774386
0.665734
0.546924
0.430095
0.32051
0.253468
0.156555
0.310288
0.629864
0.867227
0.995073
1.08127
1.14236
1.18567
1.21316
1.22567
1.23552
1.22747
1.20537
1.16776
1.11322
1.04493
0.965106
0.875101
0.776179
0.667095
0.548264
0.431
0.321239
0.253899
0.157745
0.314443
0.636149
0.874184
1.00188
1.08655
1.14443
1.18793
1.21826
1.23907
1.23593
1.23196
1.20916
1.17281
1.11643
1.04853
0.967483
0.877411
0.777541
0.668209
0.548809
0.431417
0.321482
0.254213
0.156738
0.308116
0.628441
0.868187
0.996588
1.08186
1.14265
1.18815
1.2178
1.23315
1.23244
1.22909
1.20643
1.17016
1.115
1.04682
0.966815
0.876979
0.777413
0.668678
0.549056
0.431921
0.321638
0.254284
0.14954
0.416349
0.592326
0.697739
0.766581
0.780298
0.788983
0.781583
0.751551
0.728614
0.645513
0.717261
0.254284
0.586023
0.829974
1.0462
1.24479
1.44296
1.64852
1.87673
2.09452
2.31419
2.54764
2.77255
0.156555
0.425466
0.597879
0.707265
0.769912
0.79443
0.800019
0.794288
0.758944
0.73348
0.648095
0.716715
0.253468
0.584136
0.827392
1.04308
1.24119
1.43901
1.64409
1.87187
2.08912
2.30805
2.54084
2.76499
0.157745
0.42776
0.600874
0.70832
0.776988
0.789906
0.798634
0.786702
0.755383
0.730999
0.650229
0.719354
0.253899
0.585092
0.828707
1.0447
1.24311
1.44114
1.6466
1.87468
2.09257
2.31233
2.54588
2.77145
0.156738
0.425829
0.599596
0.705716
0.773596
0.785789
0.79448
0.783022
0.751989
0.728589
0.646953
0.718682
0.254213
0.585976
0.830151
1.04665
1.2455
1.44397
1.64971
1.87806
2.09591
2.31563
2.54951
2.77438
)
;
    }
    stator
    {
        type            kqRWallFunction;
        value           nonuniform List<scalar> 
192
(
0.287175
0.276773
0.259632
0.23687
0.211534
0.184596
0.15964
0.138411
0.117528
0.0936815
0.0584008
0.0185198
0.0188759
0.0618203
0.104715
0.13778
0.166099
0.192606
0.217389
0.2394
0.258906
0.27339
0.28273
0.286917
0.28508
0.274714
0.257649
0.235037
0.209911
0.183257
0.158549
0.137451
0.11668
0.0929311
0.0576802
0.0181961
0.0188594
0.0617902
0.104651
0.137701
0.166068
0.192694
0.217701
0.239925
0.259802
0.274609
0.284267
0.288916
0.287425
0.27727
0.260283
0.237565
0.212245
0.185217
0.159998
0.138635
0.117615
0.0936071
0.0582215
0.0184401
0.0189152
0.0618527
0.104762
0.137799
0.166136
0.192668
0.217494
0.239533
0.259107
0.273636
0.283017
0.287253
0.285507
0.275213
0.258182
0.235548
0.21037
0.183603
0.15875
0.137596
0.116779
0.0929817
0.0577452
0.0182347
0.0189262
0.0619358
0.104907
0.138011
0.166562
0.193384
0.218585
0.240932
0.260856
0.275663
0.285258
0.289619
0.306426
0.278384
0.246506
0.219016
0.193783
0.169646
0.146047
0.121904
0.0965087
0.0696032
0.0416667
0.0188759
0.266544
0.248994
0.226623
0.208247
0.188722
0.168809
0.147199
0.123258
0.096527
0.067694
0.0391865
0.0185198
0.306127
0.27819
0.246345
0.218925
0.193685
0.169569
0.145946
0.121809
0.0964197
0.0695457
0.0416421
0.0188594
0.265643
0.248254
0.225913
0.207512
0.187993
0.168049
0.146442
0.122521
0.0958963
0.0672283
0.0388392
0.0181961
0.305723
0.277855
0.24606
0.218688
0.193491
0.169416
0.145842
0.121746
0.0963846
0.0695734
0.041698
0.0189152
0.267389
0.249587
0.227185
0.208666
0.189098
0.169063
0.147391
0.123332
0.0965189
0.0675938
0.0390632
0.0184401
0.305886
0.278039
0.246311
0.218956
0.193769
0.16968
0.146083
0.121941
0.0965386
0.0696372
0.0417086
0.0189262
0.265972
0.248502
0.226112
0.207708
0.188173
0.168239
0.146627
0.122705
0.096047
0.0673249
0.0389044
0.0182347
)
;
    }
    front
    {
        type            empty;
    }
    back
    {
        type            empty;
    }
}

