/*--------------------------------*- C++ -*----------------------------------*\
| =========                 |                                                 |
| \\      /  F ield         | OpenFOAM: The Open Source CFD Toolbox           |
|  \\    /   O peration     | Version:  4.0                                   |
|   \\  /    A nd           | Web:      www.OpenFOAM.org                      |
|    \\/     M anipulation  |                                                 |
\*---------------------------------------------------------------------------*/
FoamFile
{
    version     2.0;
    format      ascii;
    class       volScalarField;
    location    "50";
    object      nut;
}
// * * * * * * * * * * * * * * * * * * * * * * * * * * * * * * * * * * * * * //

dimensions      [0 2 -1 0 0 0 0];

internalField   nonuniform List<scalar> 
3072
(
5.97495e-05
0.000138678
0.000208869
0.00025517
0.000277372
0.00029071
0.000300089
0.000307505
0.000313343
0.000315978
0.000316108
0.000316152
0.000108698
0.000340299
0.000375372
0.000541712
0.00073846
0.000951469
0.00120489
0.0014656
0.00173006
0.00197904
0.00221116
0.00239615
0.00014642
0.000636271
0.00083264
0.00120745
0.00159069
0.00198557
0.00236948
0.00272018
0.00303596
0.00331258
0.00355176
0.00374112
0.000173904
0.000851768
0.00124217
0.00175119
0.00223903
0.00269654
0.00310036
0.00345192
0.00375187
0.00400952
0.00422941
0.00441238
0.000197598
0.00100854
0.00155699
0.00213006
0.00266296
0.00312049
0.00350995
0.00383157
0.00409776
0.00432304
0.00451773
0.00468637
0.000215138
0.00109741
0.00176297
0.00239864
0.00294893
0.00339107
0.00375034
0.00402754
0.00424643
0.00442933
0.00459359
0.0047476
0.000231633
0.00116177
0.00190695
0.00255803
0.00308948
0.00351643
0.00384348
0.00408609
0.00426808
0.00441345
0.00454138
0.00467002
0.000245516
0.00117978
0.00195378
0.00260225
0.00313117
0.00354738
0.00385374
0.00406794
0.00421471
0.00431872
0.00440189
0.00448494
0.000255388
0.00111793
0.00192135
0.00256921
0.00310164
0.00350948
0.00380287
0.00399738
0.00411522
0.00417886
0.0042084
0.00422563
0.000266904
0.0010202
0.00180796
0.00243831
0.00297215
0.00338564
0.00368227
0.00386761
0.00396705
0.00399961
0.00397916
0.00392465
0.000263061
0.000781161
0.00159964
0.00222506
0.00274308
0.00315953
0.0034591
0.00365052
0.0037446
0.0037625
0.00370207
0.00358543
0.000299495
0.000637826
0.00130696
0.00190873
0.00241711
0.00281889
0.00312816
0.00331895
0.00340479
0.00342898
0.00334077
0.00318526
0.000313899
0.000310149
0.000303741
0.000295438
0.000284868
0.000272252
0.000256963
0.000238751
0.000216407
0.000192321
0.000165833
8.05606e-05
0.00251592
0.00259244
0.00262808
0.00260397
0.00251062
0.00233486
0.0020368
0.00164858
0.00118794
0.000666571
0.000279996
0.000136714
0.00387017
0.00393759
0.00398907
0.00395799
0.00383896
0.00360876
0.00318462
0.00265959
0.00202797
0.00130254
0.000550253
0.000179861
0.00455769
0.0046655
0.00470231
0.00469731
0.0046119
0.00443068
0.00408178
0.00356872
0.00288102
0.00199615
0.000938078
0.000221085
0.00483343
0.00495491
0.00504213
0.00506938
0.00504644
0.00493769
0.00470407
0.00428332
0.00363998
0.00268702
0.00139582
0.000261974
0.00489326
0.00502935
0.00514889
0.00523432
0.00527848
0.00526163
0.00514253
0.0048545
0.00430866
0.00334958
0.00188767
0.000304362
0.00480749
0.00495477
0.00510501
0.00525094
0.00536199
0.00543592
0.00544359
0.00529812
0.00488413
0.00397711
0.00238217
0.000348946
0.00458562
0.00471761
0.00488768
0.00508576
0.00528783
0.00546435
0.00558547
0.00560832
0.00535881
0.00452517
0.00281011
0.000397944
0.00425722
0.00433387
0.00448942
0.00472727
0.00502281
0.00532531
0.00558837
0.0057528
0.00569103
0.00501152
0.00322052
0.000447209
0.00387116
0.00385765
0.00395616
0.00419584
0.00457344
0.00501109
0.00543123
0.00577672
0.00590166
0.00535623
0.00354967
0.000498188
0.00346623
0.00336875
0.00339098
0.00358122
0.00400326
0.00456281
0.00512904
0.00564263
0.00599879
0.00571855
0.0038724
0.000552107
0.00305669
0.00294398
0.00291803
0.00308389
0.00350975
0.0041178
0.00476256
0.00539063
0.00592811
0.00593773
0.00430527
0.000605516
5.91313e-05
0.00014149
0.000210769
0.000255936
0.000278032
0.000291922
0.00030151
0.000308043
0.00031238
0.000315943
0.000317197
0.000316993
0.000109126
0.000347526
0.000376936
0.000548503
0.000743651
0.00095998
0.00121059
0.00146951
0.00173481
0.00198977
0.00221594
0.00240317
0.000146414
0.000640989
0.000840819
0.001219
0.00160115
0.00199568
0.00237678
0.00272729
0.00304448
0.00332291
0.00356161
0.00375092
0.00017473
0.000857755
0.00125269
0.00176203
0.00224784
0.00270388
0.00310681
0.00346078
0.00376257
0.00402228
0.00424354
0.00442766
0.000198031
0.00101362
0.00156493
0.00213715
0.00266925
0.00312701
0.00351685
0.00384156
0.00411146
0.00434029
0.00453814
0.00470916
0.000216622
0.0011007
0.00177173
0.00240628
0.00295546
0.00339799
0.00375891
0.00404037
0.00426407
0.00445188
0.00462047
0.00477848
0.000232582
0.00116435
0.00191439
0.00256332
0.00309355
0.00352101
0.00385138
0.00409912
0.00428726
0.004439
0.00457301
0.00470694
0.000247247
0.00118091
0.00195796
0.00260634
0.00313391
0.00355078
0.0038603
0.00407972
0.00423302
0.00434408
0.00443436
0.00452418
0.000257373
0.00111866
0.00192361
0.00257161
0.00310249
0.00351027
0.00380594
0.00400478
0.00412842
0.0041988
0.00423573
0.0042608
0.000267734
0.00102176
0.00180948
0.00243888
0.00297073
0.0033829
0.0036799
0.00386779
0.00397117
0.00400891
0.00399505
0.00394823
0.000265419
0.000781666
0.00159908
0.00222266
0.0027379
0.00315206
0.00345103
0.00364228
0.00373757
0.00375834
0.00370372
0.00359404
0.000300065
0.0006339
0.00129825
0.00189973
0.00240676
0.00280607
0.00311301
0.00330419
0.00338708
0.0034122
0.00332954
0.00318117
0.000314224
0.000310421
0.000304136
0.000295743
0.000285183
0.000272547
0.00025726
0.000239008
0.000216657
0.000192503
0.000165993
8.06103e-05
0.00252094
0.00259783
0.00263292
0.00260843
0.00251455
0.00233836
0.00203977
0.00165102
0.00118955
0.000667567
0.000280282
0.000136807
0.0038795
0.00394708
0.00399828
0.00396684
0.00384718
0.00361576
0.00319044
0.00266414
0.00203098
0.00130426
0.000550891
0.000179991
0.00457386
0.00468176
0.0047185
0.00471302
0.00462654
0.0044438
0.00409238
0.00357729
0.00288662
0.00199906
0.000939005
0.00022124
0.00485784
0.00498031
0.00506688
0.00509313
0.00506853
0.00495774
0.00472045
0.00429652
0.00364878
0.00269163
0.00139729
0.000262155
0.00492767
0.00506373
0.00518307
0.00526836
0.00531043
0.00528965
0.00516588
0.0048732
0.00432157
0.00335637
0.0018898
0.000304572
0.0048486
0.00499813
0.00514832
0.00529263
0.00540191
0.00547338
0.00547589
0.00532303
0.00490173
0.00398668
0.00238517
0.000349189
0.00463095
0.00476762
0.00493991
0.00513794
0.00533739
0.00550909
0.00562502
0.00564084
0.00538135
0.00453769
0.00281436
0.00039824
0.00430066
0.00438557
0.00454678
0.00478751
0.00508206
0.00537995
0.00563586
0.00579145
0.00572002
0.0050282
0.0032261
0.000447586
0.00390378
0.00390242
0.0040106
0.00425817
0.00463885
0.00507325
0.00548623
0.00582242
0.00593598
0.00537788
0.00355755
0.000498682
0.00348207
0.0033991
0.00343285
0.00363536
0.00406887
0.00462814
0.00518806
0.00569325
0.0060386
0.00574414
0.00388258
0.000552716
0.00305642
0.00296184
0.00294821
0.00312427
0.00356632
0.0041756
0.00481864
0.00544224
0.00597137
0.00596735
0.00431804
0.000606317
5.92983e-05
0.000142704
0.000212034
0.000256855
0.000278515
0.000291938
0.000301463
0.000308975
0.000314356
0.000316794
0.00031708
0.000317062
0.000109452
0.000349408
0.000378236
0.000549058
0.000745582
0.00096503
0.00121545
0.00147792
0.00174143
0.00199241
0.00222449
0.00240918
0.000146968
0.000644503
0.00084452
0.00122339
0.00160671
0.00200399
0.00238585
0.00273749
0.00305349
0.00333137
0.00357112
0.00376069
0.000174889
0.000862822
0.00125943
0.00176911
0.00225571
0.00271323
0.00311643
0.00347034
0.0037715
0.00403095
0.00425244
0.00443677
0.000198851
0.00101763
0.00157213
0.00214505
0.0026778
0.00313629
0.00352542
0.00384897
0.00411783
0.0043462
0.00454387
0.00471503
0.000216454
0.00110686
0.00177934
0.00241498
0.00296445
0.00340598
0.0037654
0.00404524
0.00426731
0.00445378
0.00462168
0.00477943
0.000233341
0.00116909
0.00192166
0.00257134
0.003101
0.00352644
0.00385455
0.00409978
0.00428561
0.00443555
0.00456842
0.00470199
0.00024757
0.00118848
0.00196389
0.00261281
0.00313934
0.00355397
0.00386049
0.00407676
0.00422717
0.00433582
0.00442427
0.004513
0.000256593
0.00112455
0.00192971
0.00257783
0.00310661
0.00351178
0.00380412
0.00399948
0.00411984
0.00418732
0.00422178
0.00424488
0.000265844
0.00102644
0.00181473
0.00244329
0.00297517
0.00338461
0.00367806
0.00386221
0.00396211
0.00399675
0.00398012
0.00393068
0.000265626
0.000781917
0.0016012
0.00222558
0.00274123
0.00315533
0.00345132
0.00363876
0.00373038
0.00374795
0.00369043
0.00357767
0.000299758
0.00063206
0.00129745
0.00190135
0.00241003
0.00280966
0.00311584
0.0033041
0.00338315
0.00340477
0.00331911
0.00316727
0.000314885
0.00031104
0.000304565
0.00029624
0.000285548
0.000272905
0.000257509
0.000239233
0.000216806
0.00019265
0.000166121
8.06863e-05
0.00252804
0.00260448
0.00263998
0.00261505
0.00252092
0.00234407
0.00204452
0.00165418
0.00119158
0.000668168
0.000280532
0.000136943
0.00388965
0.00395702
0.00400826
0.00397636
0.00385596
0.00362434
0.0031975
0.00266951
0.00203478
0.0013063
0.000551525
0.000180173
0.00458326
0.00469123
0.00472792
0.00472216
0.00463522
0.00445178
0.00410006
0.00358326
0.0028915
0.00200237
0.000940419
0.000221475
0.00486371
0.00498671
0.00507384
0.00510042
0.00507588
0.00496473
0.00472772
0.00430271
0.00365437
0.00269601
0.00139955
0.000262435
0.00492938
0.00506607
0.00518669
0.00527208
0.00531485
0.00529495
0.00517191
0.004879
0.00432719
0.0033614
0.00189285
0.000304893
0.00484392
0.00499424
0.00514474
0.0052925
0.00540343
0.00547609
0.00547989
0.00532805
0.00490704
0.00399184
0.00238863
0.00034955
0.00461959
0.00475713
0.00493128
0.00513227
0.00533471
0.00550913
0.00562673
0.00564406
0.00538624
0.00454277
0.00281751
0.000398613
0.00428355
0.00436846
0.00453147
0.0047755
0.0050741
0.00537596
0.00563511
0.00579294
0.00572254
0.00503207
0.00322908
0.00044796
0.00388412
0.00388121
0.0039903
0.00424071
0.00462583
0.0050653
0.00548263
0.00582198
0.0059376
0.00537965
0.00355972
0.000499083
0.00346382
0.00337829
0.00341263
0.00361657
0.004053
0.00461744
0.0051823
0.00569109
0.00603886
0.00574551
0.00388427
0.000553144
0.00304283
0.00294424
0.00293306
0.00310929
0.00355339
0.00416613
0.00481263
0.00543911
0.00597036
0.00596751
0.00431918
0.000606628
5.92232e-05
0.000140857
0.000210181
0.000255581
0.000277745
0.000291706
0.00030173
0.000308825
0.00031334
0.000316101
0.000316607
0.000316672
0.000109196
0.000347655
0.000374932
0.000546221
0.000741038
0.00095705
0.00120909
0.00146674
0.00173056
0.00198468
0.00221441
0.00239966
0.000146718
0.00063946
0.000836478
0.00121376
0.0015957
0.00199138
0.0023735
0.00272319
0.00303994
0.00331839
0.00355709
0.00374667
0.000174458
0.000855589
0.00124791
0.00175611
0.00224261
0.0026998
0.00310309
0.00345577
0.00375759
0.00401661
0.00423719
0.00442082
0.000198304
0.00101054
0.00156079
0.00213232
0.00266485
0.00312336
0.00351217
0.00383641
0.00410501
0.00433223
0.00452856
0.00469831
0.000215758
0.00109975
0.00176717
0.00240108
0.00295139
0.0033937
0.00375443
0.00403475
0.00425638
0.00444163
0.0046076
0.00476343
0.000232621
0.0011634
0.00191022
0.00255865
0.00308989
0.00351641
0.00384607
0.00409204
0.00427764
0.00442653
0.00455774
0.00468889
0.000246498
0.0011825
0.00195535
0.00260207
0.00312976
0.00354587
0.00385435
0.00407194
0.0042228
0.0043311
0.00441848
0.00450523
0.000255749
0.00112106
0.00192182
0.00256722
0.00309793
0.00350496
0.00379965
0.00399696
0.00411865
0.00418688
0.00422146
0.00424374
0.000266215
0.00102278
0.00180694
0.00243479
0.0029656
0.00337757
0.00367342
0.00386043
0.0039626
0.00399923
0.00398418
0.0039356
0.000263789
0.000782436
0.00159758
0.0022191
0.00273336
0.00314702
0.0034459
0.00363592
0.00373067
0.00375135
0.00369706
0.00358618
0.000299341
0.000635332
0.00129827
0.00189778
0.00240348
0.00280259
0.00310947
0.00330107
0.00338241
0.00340781
0.00332709
0.00317788
0.000314416
0.000310699
0.000304266
0.000295955
0.000285415
0.000272754
0.00025748
0.000239229
0.000216822
0.000192685
0.000166105
8.06717e-05
0.00251933
0.002596
0.00263153
0.00260761
0.00251425
0.00233841
0.0020402
0.00165171
0.00119031
0.000668085
0.00028052
0.000136912
0.00387613
0.00394376
0.00399514
0.00396417
0.00384512
0.00361444
0.00319005
0.00266442
0.00203171
0.001305
0.000551282
0.00018012
0.00456667
0.00467474
0.00471193
0.00470718
0.00462139
0.00443975
0.00408981
0.00357605
0.00288654
0.0019996
0.000939472
0.000221386
0.00484571
0.00496796
0.00505566
0.00508495
0.00505895
0.00494949
0.00471446
0.00429273
0.00364716
0.00269157
0.00139775
0.000262311
0.00491126
0.0050463
0.00516511
0.0052512
0.005294
0.00527611
0.00515554
0.00486609
0.00431771
0.00335528
0.00189016
0.000304733
0.00482811
0.00497551
0.00512344
0.00526941
0.00538032
0.00545363
0.00546014
0.00531226
0.004895
0.00398398
0.002385
0.000349354
0.00460885
0.00474249
0.00491232
0.00510962
0.00530996
0.00548434
0.00560431
0.00562588
0.00537132
0.00453277
0.00281321
0.000398395
0.00428006
0.00436061
0.00451747
0.004755
0.00504894
0.00534915
0.00560984
0.00577162
0.00570594
0.00502104
0.00322418
0.000447725
0.00388802
0.00388163
0.00398323
0.00422413
0.00460122
0.00503685
0.00545456
0.0057975
0.00591931
0.00536858
0.00355444
0.000498834
0.00347258
0.00338546
0.00341195
0.00360503
0.00402917
0.00458774
0.00515214
0.00566401
0.00601789
0.00573331
0.00387963
0.000552849
0.00305258
0.0029553
0.00293247
0.00310102
0.00353015
0.00413737
0.00478211
0.00541041
0.0059473
0.00595375
0.00431456
0.00060635
0.0011679
0.000731377
0.00106793
0.00145045
0.00192679
0.0023506
0.00266102
0.00287185
0.00295981
0.00299954
0.00290068
0.00280495
0.00238998
0.00166531
0.00116209
0.00122416
0.00149411
0.00179488
0.00211604
0.00233775
0.00247139
0.00253732
0.00250021
0.00242628
0.00341169
0.00261224
0.00196195
0.00149004
0.00142807
0.00151349
0.00170875
0.00189935
0.00206817
0.00218056
0.00217691
0.00213298
0.00416101
0.00336318
0.00261366
0.00197597
0.00168835
0.00157607
0.00165201
0.0017982
0.00194245
0.00201593
0.00215901
0.00203964
0.00268307
0.00250673
0.0025556
0.00277976
0.00321639
0.00385121
0.00450331
0.00513549
0.00574121
0.00609829
0.00522249
0.00176896
0.00231418
0.0022579
0.00239651
0.00279463
0.00337036
0.00391974
0.00446575
0.00501589
0.00557185
0.00605655
0.00593748
0.00320635
0.00211216
0.00217918
0.00257489
0.00314554
0.00372723
0.00421031
0.00464458
0.00508009
0.00554069
0.00598521
0.00632115
0.00444026
0.00187516
0.00222358
0.0030001
0.00369632
0.00417434
0.00454004
0.00488255
0.00523514
0.00560532
0.00594614
0.00624788
0.00521341
0.00116296
0.000727505
0.0010617
0.0014397
0.00191045
0.00233058
0.00263746
0.00284916
0.00293073
0.00297301
0.00288167
0.00279023
0.00238746
0.00165871
0.00115715
0.00121656
0.00148053
0.00177544
0.00208697
0.00230765
0.00243367
0.00250922
0.00247797
0.00241165
0.00340564
0.00260807
0.00196074
0.00149443
0.00142323
0.00150645
0.00169115
0.00188118
0.00203798
0.00215793
0.0021601
0.00213001
0.00415448
0.00335957
0.00261346
0.00198228
0.00169687
0.00158019
0.00164578
0.00178693
0.0019254
0.00200627
0.002157
0.0020449
0.00267936
0.00251502
0.00258077
0.00280886
0.00325858
0.00389687
0.00455062
0.00518263
0.00578482
0.00613141
0.00524098
0.00177426
0.00231781
0.00226061
0.00241216
0.00281429
0.00339656
0.0039487
0.00450071
0.00505484
0.00561151
0.00609152
0.00596038
0.00321803
0.00211656
0.00218321
0.00258586
0.00316071
0.00374843
0.00423179
0.0046702
0.0051101
0.00557352
0.0060176
0.00634599
0.00445618
0.00188391
0.00223391
0.00300445
0.00370351
0.00418455
0.00455494
0.00490138
0.00525743
0.00563023
0.0059719
0.00626982
0.0052296
0.00116536
0.000726778
0.00106109
0.00144031
0.0019136
0.00233506
0.00264126
0.00285123
0.00292904
0.00296745
0.00287214
0.00277991
0.00239396
0.00165857
0.00115373
0.0012157
0.00148233
0.00177929
0.0020915
0.00230927
0.00243115
0.00250328
0.00246977
0.00240288
0.00341524
0.00261211
0.00195898
0.00148567
0.00141912
0.00150335
0.00168922
0.00187767
0.00203181
0.00215155
0.00215344
0.00212472
0.00416523
0.00336464
0.00261265
0.00197557
0.00168811
0.00157144
0.00163918
0.00178238
0.00192368
0.00200413
0.00215513
0.00204709
0.00266747
0.00250385
0.00257326
0.00280044
0.00325201
0.00389092
0.00454607
0.00517959
0.00578297
0.00613046
0.00524018
0.00177265
0.00230872
0.00225793
0.00241366
0.00281307
0.0033966
0.00394696
0.00449821
0.00505254
0.00560946
0.00608947
0.00595799
0.00321552
0.00211244
0.00218524
0.00258137
0.00315914
0.00374745
0.00423089
0.00466894
0.00510873
0.00557193
0.00601535
0.00634332
0.00445206
0.00188089
0.00222793
0.00300369
0.00370467
0.00418544
0.0045552
0.00490131
0.00525724
0.00562962
0.00597043
0.00626815
0.00522566
0.00116802
0.000728177
0.00106029
0.00144114
0.00191008
0.00233015
0.00263709
0.00284998
0.00292977
0.00297317
0.00288287
0.00279081
0.00239048
0.0016673
0.0011654
0.00122176
0.00148433
0.00177953
0.0020908
0.00231258
0.00243617
0.00251348
0.00248156
0.00241442
0.00341413
0.00261315
0.00196757
0.0015023
0.00142912
0.00151162
0.00169604
0.0018872
0.00204272
0.00216309
0.00216424
0.00213091
0.0041637
0.00336669
0.00261972
0.00198688
0.00170008
0.00158418
0.00165067
0.00179417
0.001934
0.00201178
0.00215514
0.00204373
0.00267861
0.00250979
0.002567
0.00279316
0.00322981
0.00386412
0.00451778
0.00515192
0.00575888
0.00611528
0.00523452
0.00177112
0.0023173
0.00225468
0.00240287
0.00280337
0.00337719
0.00392712
0.00447579
0.00502909
0.00558752
0.00607309
0.00595193
0.00321222
0.00211408
0.00217659
0.00257762
0.00314817
0.00373085
0.00421658
0.00465355
0.00509177
0.00555482
0.00600088
0.00633556
0.00444837
0.00187835
0.0022266
0.00299554
0.00369604
0.00417822
0.00454675
0.00489161
0.00524616
0.00561808
0.00595983
0.00625984
0.00522119
0.00380614
0.00319254
0.00250598
0.00187798
0.00171377
0.00177399
0.00196255
0.00219795
0.00243054
0.00249853
0.00237391
0.00136512
0.00359046
0.00295166
0.0023022
0.00190579
0.00189582
0.00203298
0.00225062
0.00251225
0.0028325
0.00298306
0.00258064
0.000991102
0.00348489
0.00284844
0.00229546
0.0020556
0.00209942
0.00227503
0.00248947
0.00284293
0.00322852
0.00329656
0.00260663
0.000695514
0.00346872
0.00288018
0.00241954
0.00224146
0.00229579
0.00243645
0.00269625
0.00311295
0.00346654
0.00339881
0.00248535
0.000410689
0.00152451
0.00296877
0.00387207
0.00439283
0.00470604
0.00494636
0.00515566
0.00538287
0.00559916
0.00573352
0.00551782
0.00464763
0.00129057
0.0032061
0.0042495
0.00471319
0.00491906
0.00507333
0.00523016
0.00538404
0.00549275
0.00546156
0.00502187
0.00431017
0.000861332
0.00311304
0.00428608
0.00477329
0.00496462
0.00507938
0.00519921
0.00530759
0.00535679
0.00522175
0.00472329
0.00414513
0.000505014
0.00293462
0.00420386
0.00471241
0.00490387
0.00500067
0.00509421
0.00518155
0.00520789
0.00500568
0.00452691
0.00407803
0.00380531
0.00319411
0.00251136
0.00189083
0.00172099
0.00177842
0.00196488
0.00219707
0.00242864
0.00249706
0.00237085
0.00137021
0.00359669
0.00296145
0.00231907
0.00192134
0.00190541
0.00204368
0.00226163
0.00252034
0.00283748
0.00298254
0.00257651
0.000993529
0.00349811
0.00286702
0.0023208
0.00207436
0.00211483
0.00228962
0.00250569
0.00285667
0.00323545
0.00329621
0.00260271
0.000697314
0.00348686
0.00290476
0.0024492
0.00226564
0.00231584
0.00245605
0.00271659
0.00312878
0.00347382
0.00339904
0.00248238
0.000411143
0.00152871
0.00297391
0.00387514
0.00439763
0.00471311
0.00495614
0.00516839
0.00539843
0.00561676
0.00575137
0.00553288
0.00465923
0.00129204
0.0032056
0.00425008
0.00471602
0.00492389
0.00507984
0.00523876
0.00539471
0.00550514
0.00547394
0.00503229
0.00431719
0.000862677
0.00311192
0.00428571
0.00477444
0.00496703
0.00508295
0.00520447
0.00531487
0.00536588
0.00523081
0.00473022
0.00414937
0.000504814
0.00293288
0.00420297
0.00471248
0.0049046
0.00500214
0.00509711
0.00518651
0.00521496
0.00501323
0.00453262
0.0040806
0.00381187
0.00319665
0.00250714
0.00187869
0.00171171
0.0017701
0.00195871
0.00219528
0.00243248
0.00250479
0.00238028
0.00136803
0.003599
0.00295824
0.0023076
0.00190748
0.00189612
0.00203417
0.00225559
0.00252002
0.00284283
0.00299254
0.00258623
0.000992272
0.00349724
0.00285946
0.00230501
0.00206126
0.00210538
0.00228276
0.00250096
0.00285556
0.00323915
0.00330395
0.0026104
0.000697004
0.00348418
0.00289546
0.00243374
0.00225323
0.00230887
0.00244997
0.00271076
0.00312508
0.00347469
0.00340415
0.00248813
0.000410813
0.00152261
0.00296635
0.00387437
0.00439931
0.00471478
0.00495824
0.0051698
0.00539934
0.00561666
0.00575037
0.00553089
0.0046574
0.00128717
0.00320466
0.00425147
0.0047189
0.00492705
0.00508269
0.00524085
0.00539599
0.00550486
0.00547266
0.00503098
0.004317
0.000858871
0.00311166
0.00428723
0.00477727
0.0049705
0.00508625
0.00520664
0.00531614
0.00536528
0.00522952
0.00472949
0.00414937
0.00050421
0.00293353
0.00420421
0.00471492
0.00490797
0.00500559
0.00509954
0.00518738
0.00521356
0.00500991
0.0045305
0.00408027
0.00381172
0.00319844
0.00251655
0.00189531
0.00172211
0.00177938
0.00196555
0.00219735
0.00242911
0.00249516
0.00236929
0.00136965
0.00360073
0.00296402
0.00232128
0.00192228
0.00190486
0.00204231
0.00225885
0.00251572
0.00283132
0.00297795
0.00257593
0.000993324
0.00349997
0.00286719
0.00231975
0.00207294
0.00211213
0.00228593
0.00249971
0.00284803
0.00322738
0.00329204
0.00260271
0.000697928
0.00348687
0.00290293
0.00244594
0.00226189
0.00231073
0.00245031
0.00270806
0.00311863
0.0034659
0.00339533
0.00248211
0.000411334
0.00152183
0.00296685
0.00386956
0.00439462
0.00471218
0.00495503
0.00516587
0.00539371
0.0056099
0.00574301
0.0055242
0.00465056
0.00128604
0.00320189
0.00424855
0.00471627
0.00492581
0.00508272
0.00524081
0.00539474
0.00550212
0.00546749
0.00502307
0.0043049
0.000858411
0.00310953
0.00428575
0.00477688
0.00497177
0.00508923
0.00521046
0.00531847
0.00536567
0.00522444
0.00472065
0.00413129
0.000503257
0.00293188
0.00420395
0.00471605
0.00491099
0.00501068
0.0051058
0.00519277
0.00521668
0.00500691
0.00452208
0.00405917
0.00351243
0.00299005
0.00259447
0.00242732
0.00243976
0.00256761
0.00286867
0.00329885
0.00357832
0.00339943
0.00236593
0.00026959
0.00356915
0.00311416
0.0027613
0.00258035
0.00255103
0.00267374
0.00299499
0.0033984
0.00359426
0.00333849
0.00230397
0.000269536
0.0036014
0.0032082
0.00288528
0.00268878
0.00263074
0.00274978
0.00306617
0.00341746
0.00353296
0.0032253
0.00223176
0.000265458
0.00359198
0.00325426
0.00295527
0.0027518
0.00267858
0.00278938
0.0030774
0.00336179
0.00340406
0.00306271
0.00213552
0.000262646
0.00353981
0.00325405
0.0029739
0.00277391
0.00269332
0.00278558
0.00302445
0.00323383
0.00321135
0.00285066
0.0020101
0.000257679
0.0034506
0.00321346
0.00294961
0.00275813
0.00266939
0.00272831
0.00290096
0.00303226
0.00295475
0.00258764
0.00184696
0.000250935
0.00332603
0.00312888
0.00288317
0.00269699
0.0025918
0.00260179
0.00269707
0.00275221
0.00263148
0.00227168
0.0016369
0.00024089
0.00314231
0.00297551
0.00275225
0.00256369
0.00243222
0.00238315
0.00239937
0.002386
0.00223711
0.00190091
0.00137157
0.000226286
0.00283569
0.00269331
0.00250059
0.00230615
0.00214714
0.00204115
0.0019833
0.00191491
0.00176142
0.00147233
0.00104903
0.000205006
0.00228866
0.00217242
0.00202689
0.00184148
0.00167339
0.00153535
0.00143913
0.00134759
0.00120851
0.000981871
0.00069153
0.000175299
0.00134081
0.00126789
0.00118301
0.00107671
0.000949754
0.000830973
0.00074647
0.000670278
0.000580993
0.000457607
0.000293399
0.000135745
0.000152158
0.000149396
0.000144592
0.000137866
0.000129726
0.000120281
0.00011066
0.000102691
9.39496e-05
8.32761e-05
6.51114e-05
3.65803e-05
0.000287832
0.00274028
0.00406863
0.00458922
0.00478354
0.00486911
0.00494257
0.00500729
0.00501086
0.0047986
0.00439775
0.00405448
0.000284306
0.00261931
0.00390665
0.0044275
0.00462591
0.00470428
0.00476206
0.00481204
0.00480929
0.00461851
0.00429303
0.00403428
0.000276799
0.00251068
0.00372102
0.0042357
0.00444092
0.00451722
0.00456378
0.00460276
0.00459917
0.00444055
0.00418193
0.00398807
0.000269584
0.00238538
0.00350804
0.00401404
0.0042304
0.00431196
0.00435389
0.0043861
0.00438434
0.00425812
0.00405541
0.00390767
0.00026145
0.00224033
0.0032608
0.00375649
0.00398885
0.00408499
0.00413187
0.00416396
0.00416701
0.00406929
0.00391262
0.0037962
0.000251953
0.00206553
0.00296879
0.00345192
0.00370384
0.0038241
0.00388792
0.00392982
0.00394336
0.0038719
0.00375264
0.00365786
0.000240506
0.00184728
0.00262
0.0030858
0.00335649
0.00350727
0.00359967
0.00366341
0.00369639
0.00365252
0.00356706
0.00348927
0.000225781
0.00156837
0.00220404
0.00264222
0.00292277
0.0031026
0.00322966
0.0033252
0.00338752
0.00337581
0.00332571
0.00326662
0.000206121
0.00121292
0.00170217
0.00208797
0.0023626
0.0025677
0.00272557
0.002853
0.00294886
0.00297288
0.0029624
0.00292823
0.00017946
0.000795395
0.0011423
0.00144402
0.00167239
0.00186424
0.00202487
0.00216291
0.0022772
0.00233207
0.0023598
0.00235648
0.000142144
0.000336016
0.00053381
0.000702595
0.000840608
0.000972538
0.00108972
0.00118574
0.001264
0.0013216
0.00136486
0.00137907
3.81523e-05
6.89399e-05
9.02247e-05
0.000103881
0.000114469
0.000123672
0.000131753
0.000138434
0.000144135
0.000148217
0.000150847
0.000151974
0.00353229
0.00301664
0.00262507
0.00245398
0.00246311
0.00259104
0.00289122
0.00331481
0.00358538
0.00340015
0.00236334
0.000269045
0.00358768
0.00313925
0.00278988
0.00260686
0.00257605
0.0026992
0.00301802
0.00341356
0.00360089
0.00333965
0.00230189
0.000269072
0.00361687
0.00322983
0.00291029
0.00271366
0.00265595
0.00277565
0.00308846
0.00343141
0.00353909
0.00322684
0.00223051
0.000264978
0.00360364
0.00327169
0.00297627
0.00277427
0.00270276
0.00281425
0.00309805
0.00337426
0.00340963
0.00306448
0.002135
0.000262126
0.00354765
0.00326719
0.00299109
0.00279362
0.00271549
0.0028083
0.00304279
0.00324467
0.0032163
0.00285245
0.00201023
0.00025712
0.00345496
0.00322239
0.00296319
0.00277467
0.00268855
0.00274785
0.00291647
0.00304133
0.00295904
0.00258922
0.00184768
0.000250314
0.0033256
0.00313364
0.00289306
0.00270977
0.002607
0.00261733
0.00270936
0.00275945
0.00263506
0.00227295
0.00163817
0.000240233
0.00313779
0.00297631
0.00275809
0.00257206
0.00244271
0.00239417
0.00240823
0.0023914
0.0022399
0.00190202
0.00137326
0.000225619
0.00282912
0.00269091
0.00250225
0.0023099
0.00215271
0.00204751
0.00198882
0.00191884
0.00176371
0.0014733
0.00105082
0.000204509
0.0022835
0.00216789
0.00202496
0.00184131
0.00167492
0.0015379
0.00144182
0.00134975
0.00120989
0.000982531
0.000693036
0.000175017
0.00133717
0.0012643
0.00118018
0.00107475
0.0009491
0.000831117
0.000747112
0.000670993
0.000581717
0.000458079
0.000294453
0.000135526
0.000151608
0.000148835
0.000144025
0.00013731
0.000129194
0.000119843
0.000110257
0.000102343
9.35638e-05
8.29522e-05
6.47121e-05
3.62233e-05
0.000287697
0.0027386
0.00406755
0.00458865
0.00478316
0.00486915
0.00494386
0.00501067
0.00501657
0.00480564
0.00440262
0.00405675
0.000284168
0.00261786
0.00390558
0.00442657
0.00462484
0.00470337
0.00476224
0.00481431
0.00481415
0.00462566
0.00429801
0.00403733
0.000276696
0.00250953
0.00372002
0.00423459
0.00443944
0.00451567
0.00456313
0.00460414
0.00460327
0.00444782
0.00418732
0.00399246
0.000269483
0.00238442
0.00350711
0.00401283
0.00422866
0.00430997
0.00435258
0.00438667
0.00438758
0.00426509
0.0040614
0.00391321
0.000261347
0.00223955
0.00325989
0.00375519
0.00398695
0.0040827
0.00413002
0.00416375
0.00416932
0.00407568
0.00391861
0.00380241
0.000251835
0.00206482
0.00296787
0.00345054
0.00370183
0.0038216
0.00388567
0.00392892
0.00394475
0.00387741
0.00375817
0.00366411
0.000240383
0.00184664
0.00261902
0.00308436
0.00335443
0.00350472
0.00359719
0.00366202
0.00369701
0.00365706
0.00357171
0.00349508
0.000225659
0.00156779
0.00220306
0.00264078
0.00292075
0.00310015
0.00322722
0.00332366
0.00338778
0.0033796
0.00332949
0.00327184
0.00020603
0.00121247
0.00170134
0.00208667
0.00236072
0.00256545
0.00272343
0.00285167
0.00294931
0.00297645
0.00296561
0.00293324
0.00017939
0.00079513
0.00114168
0.00144302
0.00167094
0.00186238
0.00202337
0.00216194
0.00227849
0.00233546
0.00236304
0.00236158
0.000142097
0.000335898
0.000533497
0.000702093
0.000839832
0.000971131
0.00108904
0.00118595
0.00126546
0.00132381
0.00136753
0.001383
3.80884e-05
6.88913e-05
9.01868e-05
0.000103826
0.000114449
0.000123697
0.000131853
0.000138595
0.000144396
0.000148557
0.00015126
0.000152507
0.00352998
0.00300868
0.00261295
0.00244497
0.00245727
0.00258429
0.00288282
0.00330812
0.0035837
0.00340308
0.00236814
0.00026997
0.00358749
0.00313469
0.00278239
0.00260112
0.00257084
0.00269075
0.00300662
0.00340429
0.0035972
0.00334072
0.0023058
0.000269817
0.0036194
0.00322918
0.00290732
0.00271061
0.00265071
0.00276506
0.00307444
0.0034203
0.00353397
0.00322635
0.00223295
0.000265755
0.00360852
0.00327439
0.00297682
0.00277301
0.00269704
0.00280178
0.00308233
0.00336217
0.00340364
0.00306277
0.00213617
0.000262874
0.00355393
0.00327217
0.00299382
0.00279325
0.00270917
0.00279477
0.00302657
0.00323247
0.00320998
0.00284995
0.00201017
0.000257903
0.00346152
0.00322858
0.002967
0.00277469
0.00268211
0.00273456
0.00290104
0.00302984
0.00295286
0.0025863
0.00184654
0.000251088
0.00333154
0.00314009
0.00289759
0.0027103
0.00260145
0.00260576
0.00269601
0.00274937
0.00262941
0.00226993
0.00163602
0.000241015
0.0031431
0.00298282
0.00276335
0.00257377
0.00243931
0.00238572
0.00239803
0.0023833
0.00223511
0.00189902
0.00137035
0.000226315
0.00283454
0.00269765
0.00250855
0.00231341
0.00215245
0.00204312
0.00198245
0.00191286
0.00175981
0.00147055
0.00104775
0.000204942
0.00228985
0.00217463
0.00203185
0.00184655
0.00167741
0.00153712
0.00143883
0.00134635
0.00120732
0.000980301
0.000690374
0.000175107
0.00134194
0.00126939
0.0011851
0.00107952
0.00095255
0.000832324
0.000746587
0.000670027
0.000580433
0.000456705
0.000292511
0.000135451
0.000152245
0.000149549
0.000144787
0.000138084
0.000129965
0.000120523
0.000110783
0.000102765
9.40137e-05