/*--------------------------------*- C++ -*----------------------------------*\
| =========                 |                                                 |
| \\      /  F ield         | OpenFOAM: The Open Source CFD Toolbox           |
|  \\    /   O peration     | Version:  4.0                                   |
|   \\  /    A nd           | Web:      www.OpenFOAM.org                      |
|    \\/     M anipulation  |                                                 |
\*---------------------------------------------------------------------------*/
FoamFile
{
    version     2.0;
    format      ascii;
    class       volScalarField;
    location    "50";
    object      p;
}
// * * * * * * * * * * * * * * * * * * * * * * * * * * * * * * * * * * * * * //

dimensions      [0 2 -2 0 0 0 0];

internalField   nonuniform List<scalar> 
3072
(
-0.0135548
-0.20858
-0.136095
-0.315429
-1.29429
-2.55956
-3.92595
-5.09636
-5.94607
-6.37333
-6.37177
-5.94813
1.69166
1.3241
1.9353
2.26495
2.18527
1.81959
1.33624
0.889769
0.550026
0.398865
0.473871
0.795429
2.9543
2.87237
2.92704
2.85514
2.64393
2.35523
2.03801
1.76381
1.58792
1.56697
1.7392
2.11594
2.73334
3.40507
3.6358
3.71881
3.71314
3.65981
3.58197
3.51726
3.50968
3.59463
3.80821
4.18404
2.7779
3.91788
4.34713
4.64765
4.79076
4.84321
4.83433
4.80437
4.82121
4.93454
5.16403
5.54194
3.25295
4.77689
5.2444
5.64476
5.84985
5.94168
5.95334
5.93372
5.94557
6.05043
6.27794
6.65778
4.15809
5.83481
6.35621
6.79177
6.98619
7.05262
7.032
6.97865
6.95365
7.00912
7.19435
7.55388
5.08351
7.28132
7.68523
8.07576
8.20065
8.18804
8.08838
7.96182
7.86303
7.84719
7.97084
8.29917
6.67626
9.10371
9.29921
9.51383
9.48942
9.34732
9.13721
8.91309
8.72111
8.61756
8.66326
8.94848
8.99907
11.2492
11.0318
10.9842
10.7912
10.5058
10.1796
9.85512
9.56589
9.37083
9.33298
9.57256
11.8286
13.5707
12.8659
12.4298
12.0523
11.6356
11.2133
10.8089
10.4379
10.1685
10.0621
10.2605
14.0502
15.409
14.3878
13.7257
13.2065
12.708
12.2379
11.7959
11.3727
11.0508
10.8727
11.0036
-5.14
-3.99501
-2.57995
-0.975158
0.733724
2.46245
4.11768
5.59338
6.80988
7.75283
8.16611
7.94098
1.35058
2.09856
2.9966
3.99374
5.03345
6.05127
6.96926
7.71534
8.28602
8.81044
8.85655
8.06164
2.68822
3.42666
4.28057
5.19336
6.10928
6.97604
7.7356
8.32055
8.68647
8.92928
8.83707
7.66458
4.71917
5.38829
6.14376
6.92885
7.6861
8.36065
8.90941
9.2919
9.46993
9.46059
9.22681
7.73613
6.07396
6.73244
7.4698
8.22332
8.93059
9.53914
10.0135
10.3408
10.4872
10.432
10.1387
8.61875
7.19964
7.87629
8.63336
9.40555
10.1229
10.7338
11.2097
11.544
11.718
11.7398
11.5775
10.2445
8.10713
8.81734
9.62162
10.4474
11.2174
11.877
12.4022
12.796
13.0728
13.2566
13.3834
12.4917
8.86432
9.61891
10.4828
11.3805
12.2229
12.9529
13.5535
14.0367
14.4542
14.8633
15.4017
15.2011
9.52645
10.3265
11.2449
12.2127
13.121
13.91
14.5792
15.1534
15.71
16.3552
17.4365
18.1654
10.1579
10.9797
11.9201
12.9314
13.873
14.6853
15.3894
16.0238
16.6889
17.5439
19.2421
21.0224
10.8184
11.589
12.4974
13.4891
14.3959
15.1882
15.8895
16.54
17.2382
18.1833
20.4304
22.8245
11.476
12.1272
12.9507
13.8316
14.6461
15.37
16.0122
16.6296
17.2839
18.1515
20.3822
23.3134
0.121907
-0.0789362
-0.0209161
-0.249023
-1.25966
-2.54286
-3.92111
-5.09507
-5.9379
-6.36308
-6.35763
-5.93251
1.85312
1.47909
2.08948
2.37769
2.26817
1.87755
1.38539
0.93094
0.586843
0.431303
0.505253
0.826087
3.05366
2.96683
3.02172
2.92806
2.70791
2.40619
2.08304
1.80166
1.62223
1.59797
1.76879
2.14434
2.77869
3.45027
3.6844
3.7648
3.76001
3.70285
3.62224
3.55366
3.54361
3.62617
3.83905
4.21326
2.80239
3.95274
4.38622
4.68542
4.82751
4.87824
4.8669
4.83603
4.85164
4.96591
5.19275
5.57058
3.26659
4.80379
5.27482
5.67401
5.87885
5.96875
5.98161
5.96024
5.97637
6.08036
6.30891
6.68468
4.1688
5.85662
6.37871
6.81473
7.00759
7.07496
7.05476
7.00462
6.98163
7.04026
7.22461
7.58285
5.0944
7.30117
7.70258
8.09231
8.21667
8.20555
8.10877
7.9862
7.89147
7.87913
8.00409
8.33038
6.68781
9.12002
9.31276
9.5254
9.50108
9.36146
9.15608
8.93737
8.75106
8.65231
8.70068
8.98376
9.00663
11.262
11.04
10.9913
10.7993
10.5175
10.1974
9.87998
9.59799
9.40902
9.37525
9.61226
11.8433
13.5837
12.8736
12.433
12.058
11.6459
11.2303
10.8344
10.4716
10.2096
10.108
10.3037
14.0827
15.4236
14.3932
13.7278
13.2128
12.7179
12.2542
11.8204
11.4057
11.0916
10.9195
11.0487
-5.12235
-3.97697
-2.56181
-0.957576
0.75053
2.47843
4.13303
5.60827
6.8248
7.76797
8.18084
7.95515
1.37984
2.12623
3.02237
4.01722
5.05502
6.07044
6.98652
7.73102
8.30073
8.82437
8.86968
8.07417
2.71535
3.45174
4.30322
5.21334
6.12694
6.99163
7.74956
8.33336
8.69842
8.9403
8.84718
7.67424
4.74645
5.41251
6.16481
6.94649
7.70096
8.37328
8.9206
9.30217
9.47932
9.46878
9.23424
7.74259
6.09863
6.75416
7.48668
8.23652
8.94067
9.54722
10.0209
10.348
10.4941
10.4376
10.1444
8.62384
7.22435
7.8948
8.647
9.41405
10.1279
10.7374
11.2129
11.5478
11.7217
11.7451
11.583
10.2503
8.13069
8.83465
9.63169
10.4516
11.2178
11.8758
12.4017
12.7971
13.0769
13.2614
13.3913
12.5003
8.88932
9.63514
10.4902
11.3807
12.219
12.9477
13.5497
14.036
14.4565
14.8709
15.4118
15.2136
9.55367
10.3427
11.25
12.2095
13.1133
13.9016
14.5728
15.1507
15.7129
16.3625
17.4501
18.1827
10.1882
10.9972
11.9251
12.9275
13.8642
14.6759
15.3821
16.0206
16.6909
17.553
19.2583
21.0436
10.8534
11.6113
12.5059
13.4891
14.3917
15.1827
15.8851
16.5382
17.2413
18.1924
20.4488
22.8501
11.5171
12.1578
12.966
13.8393
14.6499
15.3713
16.0132
16.632
17.2887
18.1605
20.3998
23.3388
0.132554
-0.0688554
-0.0121646
-0.251537
-1.27345
-2.56636
-3.95248
-5.13385
-5.98195
-6.41009
-6.40424
-5.97679
1.87074
1.49508
2.10544
2.38481
2.26841
1.86986
1.3703
0.908113
0.558494
0.400362
0.472944
0.794287
3.07106
2.97911
3.02959
2.92931
2.70375
2.3956
2.06647
1.77947
1.59593
1.56962
1.73963
2.11611
2.78464
3.45436
3.68528
3.76132
3.7523
3.69044
3.60536
3.53255
3.51931
3.60027
3.81201
4.18743
2.79496
3.94678
4.37929
4.67637
4.81574
4.86232
4.84759
4.81155
4.82458
4.93633
5.16525
5.54373
3.25194
4.79101
5.26197
5.66118
5.86279
5.95004
5.95738
5.93374
5.94414
6.04861
6.27658
6.65732
4.1542
5.84675
6.36729
6.80079
6.99064
7.05358
7.02999
6.97495
6.94942
7.00507
7.19087
7.55147
5.0852
7.28607
7.69741
8.0806
8.19987
8.18406
8.08248
7.95528
7.85669
7.84178
7.96656
8.29589
6.67304
9.11363
9.29948
9.51304
9.48458
9.34015
9.12936
8.9055
8.71455
8.61254
8.65979
8.94571
9.00628
11.2658
11.0358
10.9828
10.7847
10.4973
10.1711
9.8481
9.56077
9.36788
9.332
9.57183
11.8564
13.5977
12.8741
12.429
12.0465
11.6274
11.2055
10.8036
10.4353
10.1689
10.0648
10.263
14.1041
15.4441
14.399
13.7281
13.2043
12.7022
12.2321
11.7926
11.3721
11.0534
10.878
11.009
-5.16217
-4.01066
-2.58828
-0.97678
0.738482
2.47272
4.13271
5.61189
6.8308
7.77534
8.1896
7.96439
1.35128
2.10152
3.00305
4.00361
5.04717
6.06785
6.98836
7.73588
8.30747
8.83241
8.87902
8.08333
2.68996
3.43048
4.28702
5.20237
6.12102
6.99021
7.75192
8.33848
8.70534
8.94858
8.85595
7.68207
4.72356
5.39432
6.15184
6.939
7.6983
8.37462
8.92483
9.30836
9.48707
9.4775
9.24306
7.75064
6.07701
6.73717
7.47644
8.2319
8.9411
9.55136
10.0272
10.3556
10.5026
10.4476
10.1542
8.63322
7.20063
7.87895
8.63782
9.41192
10.1313
10.7442
11.222
11.5578
11.7328
11.7554
11.5946
10.2617
8.10596
8.81763
9.6236
10.4514
11.2237
11.8855
12.4132
12.8093
13.0883
13.2743
13.4039
12.5143
8.86181
9.61739
10.4827
11.3826
12.2275
12.9603
13.5637
14.0499
14.4705
14.8832
15.4265
15.2304
9.52368
10.3241
11.2435
12.2136
13.1245
13.9165
14.5888
15.1663
15.7268
16.3769
17.4654
18.2013
10.1564
10.9779
11.9194
12.9334
13.8774
14.6921
15.3988
16.0362
16.7054
17.5661
19.2737
21.0633
10.8201
11.5905
12.5
13.4949
14.4039
15.1978
15.9004
16.5524
17.2536
18.204
20.4624
22.8654
11.4821
12.134
12.9582
13.842
14.6583
15.3825
16.0246
16.6425
17.298
18.1693
20.4102
23.3506
0.120818
-0.0819976
-0.0244146
-0.240932
-1.2429
-2.52329
-3.9024
-5.07996
-5.92805
-6.35819
-6.35771
-5.93674
1.84867
1.47126
2.07794
2.37566
2.27266
1.88665
1.39512
0.94037
0.594624
0.437009
0.507407
0.824892
3.05361
2.96798
3.02366
2.9353
2.71639
2.41657
2.09333
1.8114
1.63025
1.60348
1.77078
2.14315
2.79259
3.46212
3.69633
3.77768
3.77246
3.71537
3.63405
3.56431
3.5523
3.63242
3.8416
4.21234
2.82332
3.96924
4.40247
4.70201
4.84382
4.89417
4.88216
4.84998
4.86189
4.97216
5.19527
5.56923
3.29191
4.82352
5.29536
5.69428
5.89882
5.98796
5.99968
5.97591
5.98737
6.08596
6.31059
6.68205
4.19619
5.87853
6.40231
6.8379
7.03061
7.097
7.07484
7.02134
6.99321
7.04651
7.22566
7.57889
5.12391
7.3244
7.72828
8.11772
8.24221
8.23001
8.13088
8.00448
7.90446
7.88609
8.00456
8.32467
6.71728
9.14441
9.33991
9.55235
9.52846
9.38782
9.17995
8.95719
8.76533
8.65989
8.70068
8.97625
9.03065
11.2814
11.0664
11.0184
10.8274
10.545
10.2226
9.9012
9.61358
9.41751
9.37531
9.60356
11.8517
13.5946
12.897
12.4592
12.0855
11.6733
11.256
10.8566
10.4886
10.2194
10.109
10.2952
14.0708
15.4274
14.4142
13.7513
13.238
12.7442
12.2792
11.8428
11.4236
11.1028
10.9218
11.041
-5.12991
-3.98638
-2.57152
-0.966415
0.744096
2.47473
4.13252
5.61061
6.82946
7.77435
8.18803
7.96236
1.37638
2.12097
3.01668
4.01183
5.05072
6.0683
6.98648
7.73329
8.30473
8.82974
8.87611
8.08023
2.71164
3.44641
4.2975
5.2082
6.12304
6.98948
7.74929
8.33485
8.70134
8.94444
8.85191
7.67815
4.74286
5.40728
6.1592
6.94149
7.69733
8.37133
8.92039
9.30343
9.48187
9.47214
9.23798
7.74541
6.0944
6.74851
7.48077
8.23166
8.93729
9.5458
10.021
10.3496
10.4966
10.4411
10.1482
8.62683
7.21887
7.88795
8.64051
9.40891
10.1251
10.7366
11.2141
11.5502
11.7252
11.7489
11.5876
10.2546
8.12334
8.82624
9.62401
10.4461
11.2153
11.8761
12.404
12.8008
13.0813
13.2664
13.397
12.5067
8.87972
9.62478
10.4812
11.3746
12.217
12.9492
13.5537
14.0413
14.4623
14.877
15.4191
15.2227
9.54164
10.3305
11.2399
12.2029
13.1119
13.9044
14.5783
15.1576
15.72
16.3698
17.4586
18.1944
10.1743
10.9837
11.9138
12.9198
13.8629
14.6793
15.3886
16.0285
16.6987
17.5605
19.2672
21.056
10.8387
11.5968
12.4931
13.48
14.3885
15.1846
15.8905
16.5457
17.2487
18.1992
20.4563
22.8594
11.502
12.1421
12.9516
13.8286
14.6433
15.3704
16.016
16.6368
17.294
18.1654
20.4047
23.3436
17.0266
16.7006
15.5234
14.76
14.2096
13.7035
13.2342
12.799
12.3536
12.0023
11.7511
11.7966
16.584
16.2755
15.846
15.434
15.0476
14.6413
14.2426
13.841
13.3962
13.0263
12.7023
12.664
16.0341
16.0557
15.9602
15.8287
15.6605
15.4495
15.195
14.8792
14.4891
14.1113
13.7445
13.638
15.4935
15.8149
16.0244
16.1915
16.3496
16.4715
16.4811
16.3034
15.9196
15.4828
15.1233
14.9805
12.1213
12.5968
13.2665
13.9522
14.6363
15.2412
15.7837
16.3198
16.8518
17.4535
18.3528
19.7217
12.7978
13.0524
13.5166
13.9559
14.434
14.8795
15.3074
15.7472
16.1677
16.6105
16.86
17.6869
13.5804
13.5546
13.6176
13.7805
14.0345
14.3178
14.6251
14.9762
15.3301
15.7337
15.8672
16.4964
14.4343
13.8204
13.479
13.4278
13.4559
13.563
13.7371
13.9966
14.3106
14.7222
14.885
15.4064
17.0647
16.7145
15.5248
14.7624
14.2168
13.7129
13.2495
12.8214
12.384
12.0401
11.7961
11.841
16.6098
16.2896
15.8479
15.4387
15.0551
14.6483
14.2546
13.86
13.4224
13.0591
12.743
12.7049
16.0544
16.0732
15.972
15.84
15.6674
15.4556
15.2023
14.8917
14.5066
14.1351
13.7771
13.6725
15.5163
15.8408
16.0472
16.2101
16.3635
16.4765
16.4788
16.3001
15.9219
15.493
15.1418
15.0054
12.1671
12.6364
13.2903
13.9698
14.649
15.2511
15.7919
16.3274
16.8594
17.4621
18.3645
19.7415
12.8402
13.0929
13.5497
13.9841
14.4576
14.8996
15.324
15.7608
16.1787
16.6199
16.8691
17.6988
13.6184
13.5947
13.658
13.8163
14.0663
14.3458
14.6485
14.995
15.3444
15.7438
15.8743
16.502
14.4746
13.8673
13.5236
13.4694
13.4942
13.597
13.7659
14.0193
14.3273
14.7331
14.8904
15.408
17.0867
16.7324
15.5335
14.7662
14.2113
13.7004
13.2311
12.7981
12.3547
12.0064
11.7581
11.8039
16.6202
16.2979
15.8553
15.442
15.0524
14.6406
14.2427
13.8436
13.4003
13.0326
12.7113
12.673
16.0588
16.0779
15.9753
15.8406
15.6667
15.4529
15.1981
14.884
14.4944
14.1178
13.7539
13.6477
15.5156
15.8385
16.0446
16.2083
16.3634
16.4806
16.4862
16.3072
15.9243
15.4886
15.131
14.9883
12.1313
12.6098
13.2795
13.9666
14.6513
15.2558
15.7973
16.3327
16.8641
17.4668
18.3675
19.7369
12.8078
13.0675
13.5337
13.9725
14.4505
14.8956
15.3221
15.7602
16.1787
16.621
16.8684
17.6954
13.5891
13.569
13.6352
13.7968
14.0505
14.3337
14.6398
14.9891
15.3407
15.7429
15.8744
16.5053
14.4418
13.8336
13.4938
13.4427
13.4707
13.5777
13.7511
14.009
14.3209
14.7309
14.892
15.4152
17.0485
16.718
15.5435
14.7819
14.2384
13.7371
13.2729
12.8431
12.4022
12.0524
11.7999
11.8348
16.6079
16.2973
15.8636
15.4549
15.0731
14.6697
14.2757
13.8801
13.4403
13.0724
12.7485
12.7008
16.0592
16.0798
15.983
15.8525
15.6826
15.4721
15.22
14.9094
14.5237
14.1492
13.7841
13.6712
15.523
15.8471
16.0549
16.2182
16.3718
16.4864
16.4925
16.317
15.9396
15.508
15.1503
15.0084
12.1525
12.6161
13.2736
13.957
14.6389
15.2461
15.7905
16.3282
16.8611
17.463
18.3607
19.7262
12.8287
13.0729
13.5321
13.9681
14.443
14.8889
15.3171
15.7568
16.1762
16.617
16.8602
17.6808
13.6107
13.5811
13.6424
13.7986
14.0492
14.3311
14.637
14.9866
15.3382
15.7382
15.8648
16.4872
14.4722
13.8602
13.5101
13.4522
13.4755
13.5791
13.7506
14.0074
14.3185
14.726
14.8814
15.3942
15.4256
15.8098
16.0877
16.2982
16.4594
16.5891
16.6626
16.6468
16.4694
16.1058
15.7173
15.5063
15.8527
16.0787
16.1824
16.2335
16.2542
16.2757
16.2884
16.2688
16.1744
15.9681
15.7695
15.7317
16.1763
16.3043
16.2961
16.2305
16.1554
16.1199
16.1231
16.1368
16.1132
16.0161
15.9414
15.9852
16.3738
16.4368
16.3661
16.2379
16.1174
16.063
16.073
16.1137
16.1393
16.1168
16.1269
16.2126
15.0062
14.3644
13.8154
13.6125
13.5465
13.574
13.677
13.8629
14.1246
14.4989
14.6994
15.1262
15.3506
14.8689
14.4272
14.2404
14.1685
14.1876
14.2835
14.4585
14.7013
15.0313
15.2701
15.6156
15.6158
15.1998
14.8451
14.6931
14.6348
14.6574
14.7515
14.9199
15.1527
15.4463
15.6805
15.9769
15.8232
15.4184
15.1629
15.0453
15.002
15.0292
15.1205
15.2783
15.4932
15.7521
15.9713
16.2157
15.4454
15.834
16.1109
16.3178
16.4723
16.5952
16.6615
16.6415
16.4655
16.1085
15.7291
15.5258
15.8641
16.0898
16.1968
16.2472
16.2647
16.282
16.2899
16.2668
16.1727
15.9704
15.7771
15.7461
16.1808
16.3081
16.3023
16.2375
16.1624
16.125
16.1252
16.1359
16.1117
16.0165
15.945
15.994
16.3727
16.4345
16.3659
16.24
16.1213
16.0668
16.0748
16.1128
16.137
16.1148
16.126
16.216
15.0392
14.4055
13.8596
13.6547
13.5857
13.6092
13.7073
13.8876
14.1433
14.5111
14.7073
15.1288
15.3783
14.9014
14.4648
14.2779
14.2044
14.2207
14.3127
14.4832
14.7212
15.0466
15.2809
15.6234
15.6411
15.2284
14.8786
14.7274
14.6681
14.6886
14.7796
14.9443
15.1733
15.4632
15.695
15.9883
15.8475
15.4467
15.1945
15.0775
15.0338
15.0592
15.1481
15.303
15.5147
15.7712
15.9879
16.2307
15.4449
15.8311
16.1075
16.3162
16.4749
16.6011
16.6703
16.6524
16.4753
16.1126
15.7253
15.5135
15.8698
16.0936
16.1989
16.2492
16.268
16.2866
16.2958
16.2741
16.1797
15.9742
15.7765
15.739
16.1913
16.3173
16.3095
16.243
16.1666
16.1287
16.1296
16.1421
16.1189
16.0225
15.9486
15.9922
16.3867
16.4473
16.3767
16.248
16.1265
16.0705
16.079
16.1192
16.1454
16.1236
16.1347
16.2203
15.0131
14.3765
13.8278
13.6253
13.5595
13.5871
13.6895
13.8745
14.1345
14.5072
14.7065
15.1346
15.3568
14.8792
14.438
14.2519
14.1803
14.1994
14.2949
14.469
14.7106
15.0393
15.277
15.6232
15.6214
15.2084
14.8544
14.7032
14.6453
14.6679
14.7616
14.9293
15.1611
15.4538
15.6874
15.9841
15.829
15.4255
15.1711
15.0543
15.0114
15.0386
15.1297
15.287
15.5011
15.7594
15.9782
16.2229
15.4533
15.8413
16.1181
16.3246
16.4788
16.6027
16.6717
16.6544
16.4805
16.1233
15.7388
15.5302
15.8717
16.0979
16.205
16.255
16.2723
16.2904
16.2999
16.2785
16.1853
15.9821
15.7854
15.7505
16.1882
16.3164
16.311
16.2463
16.1709
16.1338
16.1347
16.1464
16.1228
16.0267
15.9531
15.9988
16.3803
16.4431
16.3751
16.2493
16.1301
16.0754
16.0837
16.1224
16.1471
16.1244
16.1347
16.2217
15.0388
14.4018
13.8491
13.6395
13.5681
13.5915
13.6912
13.8744
14.1329
14.5026
14.6982
15.115
15.3777
14.8985
14.4567
14.266
14.1902
14.2058
14.2987
14.4712
14.7109
15.0375
15.2712
15.6088
15.6404
15.2257
14.8719
14.7175
14.6562
14.6759
14.7674
14.9335
15.164
15.4551
15.6866
15.9745
15.8465
15.4432
15.1883
15.069
15.0235
15.0482
15.1373
15.2933
15.5065
15.7644
15.9811
16.2186
16.5094
16.5161
16.4004
16.2368
16.0991
16.0441
16.0665
16.1303
16.1942
16.2314
16.3184
16.4453
16.6041
16.5665
16.4201
16.2401
16.1021
16.0545
16.0895
16.1703
16.2616
16.3401
16.4617
16.6214
16.6712
16.6026
16.4398
16.2574
16.127
16.089
16.1332
16.2248
16.3346
16.4404
16.5817
16.7563
16.7213
16.6336
16.4655
16.2886
16.1686
16.1391
16.1886
16.2862
16.4078
16.5311
16.6821
16.8552
16.7634
16.6652
16.4989
16.3311
16.2211
16.1979
16.2492
16.3493
16.4782
16.613
16.768
16.9316
16.8012
16.6988
16.5382
16.3805
16.2792
16.26
16.3103
16.4105
16.5432
16.6857
16.8409
16.9872
16.8377
16.7348
16.5816
16.4336
16.3393
16.3218
16.3688
16.467
16.601
16.7492
16.9021
17.0263
16.8749
16.7738
16.6279
16.4883
16.3987
16.3808
16.4221
16.5165
16.6495
16.8022
16.9516
17.0505
16.9186
16.8195
16.679
16.5446
16.4566
16.4355
16.4685
16.5566
16.6859
16.841
16.9874
17.0629
16.9832
16.8834
16.742
16.6054
16.5127
16.4856
16.5057
16.5836
16.7057
16.8606
17.0041
17.0663
17.0842
16.9777
16.826
16.6759
16.5692
16.5329
16.5346
16.5989
16.7113
16.8645
17.0048
17.0636
17.1772
17.0703
16.9126
16.7512
16.6366
16.5703
16.5696
16.6244
16.7268
16.8712
17.0043
17.0599
15.9419
15.6133
15.4222
15.3289
15.2977
15.3294
15.42
15.5701
15.7691
15.9992
16.1987
16.3956
16.0497
15.8135
15.6388
15.5573
15.5321
15.566
15.6555
15.7996
15.9856
16.1926
16.3737
16.5304
16.1597
15.9567
15.8105
15.738
15.7149
15.7485
15.8362
15.9754
16.1512
16.3408
16.5041
16.6283
16.2472
16.0763
15.9477
15.88
15.8562
15.8875
15.9725
16.1077
16.2759
16.4523
16.6016
16.7009
16.3168
16.1703
16.0568
15.9908
15.9647
15.9929
16.075
16.207
16.3697
16.5373
16.6751
16.7568
16.3694
16.2464
16.1429
16.0764
16.0475
16.0729
16.1523
16.2821
16.4411
16.6025
16.7325
16.8024
16.4076
16.3069
16.21
16.1413
16.1104
16.1341
16.212
16.3411
16.4977
16.6555
16.7795
16.842
16.4328
16.3538
16.2598
16.1881
16.157
16.1813
16.2599
16.3902
16.546
16.7019
16.822
16.8797
16.4469
16.3867
16.2922
16.2182
16.1896
16.2184
16.301
16.4355
16.5932
16.7494
16.8673
16.9222
16.4517
16.403
16.3055
16.2308
16.2096
16.249
16.3398
16.4839
16.6496
16.8111
16.9312
16.9858
16.45
16.4066
16.3057
16.2324
16.2216
16.2777
16.382
16.543
16.7249
16.8995
17.03
17.0882
16.4465
16.4018
16.3081
16.2412
16.2399
16.3014
16.4304
16.6015
16.7951
16.9779
17.1134
17.1751
16.5024
16.5081
16.3951
16.2349
16.1004
16.0463
16.0674
16.1288
16.1907
16.227
16.3132
16.4417
16.5928
16.5543
16.4112
16.2356
16.1015
16.0554
16.0893
16.1678
16.2567
16.3334
16.4534
16.6129
16.6563
16.5873
16.4284
16.2508
16.1246
16.0882
16.1315
16.2208
16.328
16.4314
16.5704
16.7436
16.7044
16.6164
16.4525
16.2805
16.1645
16.1366
16.1853
16.2807
16.3996
16.5202
16.6683
16.8395
16.7446
16.6464
16.4846
16.3215
16.2153
16.1936
16.2441
16.3422
16.4683
16.6002
16.7518
16.9132
16.7814
16.6791
16.523
16.3695
16.2718
16.2539
16.3034
16.4017
16.5317
16.6714
16.8227
16.9667
16.8168
16.7143
16.5653
16.4213
16.3302
16.3138
16.3602
16.4567
16.588
16.7334
16.882
17.0039
16.8532
16.7527
16.6107
16.4748
16.3881
16.3712
16.412
16.5048
16.6353
16.7851
16.9301
17.0265
16.8958
16.7978
16.6609
16.5298
16.4445
16.4243
16.457
16.5436
16.6706
16.8228
16.9648
17.0377
16.9594
16.8609
16.7229
16.5894
16.4993
16.4731
16.493
16.5697
16.6895
16.8416
16.9809
17.0404
17.0593
16.9541
16.8057
16.6588
16.5546
16.5193
16.5209
16.5841
16.6944
16.8448
16.981
17.0376
17.1512
17.0454
16.8908
16.7327
16.6204
16.5556
16.5548
16.6085
16.7092
16.8507
16.9799
17.0338
15.9691
15.6423
15.453
15.3602
15.3285
15.3589
15.4475
15.5953
15.7919
16.02
16.2185
16.4137
16.0783
15.8429
15.6692
15.5881
15.5624
15.5953
15.6832
15.8254
16.0096
16.2155
16.3954
16.5514
16.1893
15.9867
15.841
15.7687
15.7452
15.7779
15.8643
16.0019
16.1764
16.3651
16.5283
16.6517
16.2776
16.1069
15.9784
15.9107
15.8865
15.9171
16.001
16.1349
16.3022
16.4781
16.6271
16.7262
16.3479
16.2015
16.0878
16.0217
15.9953
16.0228
16.1039
16.2349
16.397
16.5642
16.7023
16.7836
16.4011
16.278
16.1743
16.1076
16.0784
16.1031
16.1816
16.3106
16.4691
16.6305
16.7606
16.8305
16.4396
16.3389
16.2417
16.1727
16.1415
16.1645
16.2417
16.3699
16.5263
16.6841
16.8087
16.871
16.4652
16.3861
16.2919
16.2198
16.1883
16.2119
16.2899
16.4195
16.5751
16.7312
16.8517
16.9096
16.4794
16.4193
16.3245
16.25
16.2211
16.2492
16.3312
16.4649
16.6227
16.7789
16.8976
16.9527
16.4843
16.4357
16.3379
16.2628
16.2411
16.2798
16.37
16.5135
16.6792
16.8411
16.962
17.0169
16.4826
16.4393
16.3383
16.2644
16.2531
16.3085
16.4121
16.5727
16.7547
16.9299
17.0614
17.1203
16.4791
16.4345
16.3406
16.2733
16.2714
16.3322
16.4606
16.6312
16.8251
17.0087
17.1454
17.208
16.5198
16.5241
16.4086
16.2449
16.1067
16.0507
16.0723
16.1361
16.2007
16.2387
16.327
16.4537
16.613
16.5729
16.4269
16.2471
16.109
16.0608
16.0954
16.1763
16.2685
16.3478
16.4705
16.6307
16.6789
16.6079
16.4458
16.2637
16.1334
16.095
16.1391
16.231
16.3417
16.4484
16.5909
16.766
16.7287
16.6386
16.4713
16.2947
16.1748
16.145
16.1945
16.2925
16.4152
16.5395
16.6915
16.8654
16.7705
16.67
16.5047
16.337
16.2271
16.2037
16.2551
16.3558
16.4858
16.6216
16.7777
16.942
16.8084
16.7038
16.5441
16.3864
16.285
16.2657
16.3161
16.4171
16.551
16.6947
16.8509
16.9979
16.8449
16.7401
16.5876
16.4395
16.3449
16.3274
16.3746
16.4738
16.609
16.7585
16.9124
17.0371
16.8821
16.7794
16.6341
16.4943
16.4043
16.3865
16.428
16.5235
16.6577
16.8117
16.9621
17.0613
16.9256
16.8254
16.6852
16.5508
16.4621
16.4412
16.4745
16.5637
16.6944
16.8508
16.998
17.0737
16.99
16.8895
16.7485
16.6116
16.5183
16.4914
16.5119
16.591
16.7145
16.8706
17.0148
17.077
17.0911
16.9842
16.8329
16.6824
16.5751
16.5389
16.5409
16.6064
16.7201
16.8745
17.0155
17.0743
17.1842
17.077
16.9197
16.7579
16.6427
16.5764
16.5761
16.6319
16.7357
16.8813
17.0151
17.0706
15.9473
15.6196
15.4297
15.3371
15.3063
15.3381
15.4285
15.5783
15.7767
16.0065
16.2059
16.4032
16.0549
15.8193
15.6457
15.5649
15.5401
15.5741
15.6635
15.8073
15.9931
16.2
16.3813
16.5385
16.1654
15.9627
15.8172
15.7453
15.7225
15.7562
15.8439
15.9829
16.1586
16.3484
16.5122
16.637
16.2532
16.0826
15.9543
15.887
15.8634
15.8949
15.9799
16.1151
16.2834
16.4601
16.6099
16.71
16.3232
16.1768
16.0633
15.9976
15.9717
16.0001
16.0823
16.2143
16.3773
16.5452
16.6838
16.7663
16.3761
16.2531
16.1495
16.0831
16.0544
16.0799
16.1594
16.2894
16.4487
16.6106
16.7414
16.8122
16.4145
16.3139
16.2166
16.1479
16.1172
16.141
16.2191
16.3483
16.5054
16.6637
16.7886
16.852
16.44
16.3609
16.2665
16.1947
16.1637
16.1881
16.267
16.3975
16.5538
16.7102
16.8312
16.8899
16.4543
16.3939
16.299
16.2246
16.1964
16.2251
16.3082
16.4427
16.6011
16.7576
16.8766
16.9324
16.4591
16.4102
16.3123
16.2374
16.2163
16.2557
16.3469
16.4912
16.6574
16.8194
16.9406
16.9961
16.4574
16.4139
16.3127
16.239
16.2283
16.2844
16.389
16.5503
16.7328
16.9079
17.0394
17.0987
16.454
16.4093
16.3151
16.2481
16.2468
16.3082
16.4375
16.6089
16.803
16.9865
17.1229
17.1857
16.5106
16.5173
16.4049
16.2445
16.1092
16.0547
16.0758
16.1377
16.2002
16.2365
16.3226
16.4495
16.6017
16.5641
16.4214
16.2454
16.1102
16.0635
16.0973
16.1762
16.2659
16.3428
16.4631
16.6219
16.6658
16.5976
16.4389
16.2606
16.1332
16.0961
16.1393
16.2291
16.337
16.441
16.5804
16.7536
16.7143
16.627
16.4632
16.2903
16.1732
16.1445
16.1931
16.2889
16.4086
16.5298
16.6785
16.85
16.7549
16.6573
16.4953
16.3313
16.224
16.2016
16.252
16.3505
16.4774
16.61
16.7624
16.9242
16.7919
16.69
16.5337
16.3794
16.2806
16.262
16.3115
16.4103
16.5409
16.6814
16.8335
16.9781
16.8275
16.7253
16.5761
16.4312
16.3391
16.3222
16.3686
16.4655
16.5975
16.7436
16.8931
17.0156
16.864
16.7638
16.6215
16.4848
16.3972
16.3799
16.4207
16.5139
16.6449
16.7956
16.9414
17.0384
16.9068
16.8089
16.6717
16.54
16.4538
16.4333
16.466
16.5529
16.6805
16.8335
16.9764
17.0498
16.9704
16.8721
16.7339
16.5998
16.5089
16.4824
16.5023
16.5793
16.6997
16.8524
16.9926
17.0526
17.0706
16.9656
16.817
16.6694
16.5645
16.5288
16.5304
16.5939
16.7047
16.8557
16.9927
17.0497
17.1626
17.0572
16.9024
16.7436
16.6307
16.5654
16.5646
16.6185
16.7197
16.8618
16.9918
17.0459
15.9663
15.6381
15.4471
15.3525
15.3194
15.3491
15.4378
15.5866
15.7845
16.014
16.2131
16.4035
16.0746
15.8383
15.6635
15.581
15.5542
15.5864
15.6744
15.8174
16.0028
16.2101
16.3909
16.5426
16.1853
15.982
15.8354
15.762
15.7376
15.7698
15.8561
15.9945
16.17
16.3599
16.5243
16.6438
16.2736
16.1022
15.973
15.9044
15.8794
15.9095
15.9934
16.1279
16.296
16.473
16.623
16.7187
16.344
16.197
16.0825
16.0156
15.9884
16.0155
16.0966
16.2282
16.391
16.5589
16.6981
16.7763
16.3973
16.2737
16.1691
16.1016
16.0716
16.0961
16.1745
16.3041
16.4632
16.6252
16.7561
16.8233
16.436
16.3348
16.2366
16.1669
16.1349
16.1577
16.2348
16.3637
16.5206
16.6788
16.8039
16.8638
16.4616
16.3821
16.2868
16.214
16.1818
16.2053
16.2832
16.4134
16.5696
16.7258
16.8467
16.9026
16.476
16.4154
16.3194
16.2444
16.2146
16.2428
16.3247
16.4592
16.6173
16.7739
16.8925
16.9459
16.481
16.4318
16.333
16.2572
16.2348
16.2736
16.3639
16.5081
16.6743
16.8363
16.9571
17.0105
16.4793
16.4355
16.3334
16.2589
16.2469
16.3025
16.4064
16.5677
16.7504
16.9259
17.0571
17.1143
16.4758
16.4309
16.3359
16.2679
16.2655
16.3264
16.4552
16.6268
16.8214
17.0053
17.1415
17.2025
)
;

boundaryField
{
    rotor
    {
        type            zeroGradient;
    }
    stator
    {
        type            zeroGradient;
    }
    front
    {
        type            empty;
    }
    back
    {
        type            empty;
    }
}


// ************************************************************************* //
