/*--------------------------------*- C++ -*----------------------------------*\
| =========                 |                                                 |
| \\      /  F ield         | OpenFOAM: The Open Source CFD Toolbox           |
|  \\    /   O peration     | Version:  4.0                                   |
|   \\  /    A nd           | Web:      www.OpenFOAM.org                      |
|    \\/     M anipulation  |                                                 |
\*---------------------------------------------------------------------------*/
FoamFile
{
    version     2.0;
    format      ascii;
    class       surfaceScalarField;
    location    "50";
    object      phi;
}
// * * * * * * * * * * * * * * * * * * * * * * * * * * * * * * * * * * * * * //

dimensions      [0 3 -1 0 0 0 0];

internalField   nonuniform List<scalar> 
5952
(
5.02363e-06
-4.79371e-06
-3.23091e-06
8.2691e-06
-2.21789e-05
1.89401e-05
-4.29618e-05
2.07808e-05
-6.03219e-05
1.73557e-05
-7.4865e-05
1.45374e-05
-8.64343e-05
1.15678e-05
-9.55283e-05
9.08844e-06
-0.000102203
6.67509e-06
-0.000106686
4.47862e-06
-0.000109122
2.4379e-06
5.51117e-07
-0.000109675
-2.0563e-05
1.57763e-05
-3.90291e-05
2.67397e-05
-5.13134e-05
3.1223e-05
-6.03055e-05
2.97709e-05
-6.88553e-05
2.59028e-05
-7.64601e-05
2.21384e-05
-8.30053e-05
1.8111e-05
-8.8108e-05
1.41873e-05
-9.17593e-05
1.03255e-05
-9.39503e-05
6.66686e-06
-9.47304e-05
3.21857e-06
2.0631e-08
-9.42012e-05
-1.8698e-05
3.44796e-05
-3.40688e-05
4.21126e-05
-4.51968e-05
4.23503e-05
-5.37496e-05
3.83219e-05
-6.15195e-05
3.36706e-05
-6.82117e-05
2.88274e-05
-7.3798e-05
2.36956e-05
-7.81227e-05
1.85094e-05
-8.11344e-05
1.33364e-05
-8.27771e-05
8.30809e-06
-8.30428e-05
3.4844e-06
-1.08944e-06
-8.19331e-05
-1.65578e-05
5.10391e-05
-2.89033e-05
5.44586e-05
-3.87059e-05
5.21521e-05
-4.70758e-05
4.66895e-05
-5.43508e-05
4.09438e-05
-6.04415e-05
3.49155e-05
-6.53811e-05
2.8634e-05
-6.91098e-05
2.2236e-05
-7.15637e-05
1.57898e-05
-7.2658e-05
9.40125e-06
-7.23368e-05
3.16323e-06
-2.83853e-06
-7.0588e-05
-1.41178e-05
6.51562e-05
-2.43075e-05
6.46474e-05
-3.25314e-05
6.03743e-05
-3.97034e-05
5.38591e-05
-4.59725e-05
4.72109e-05
-5.13318e-05
4.02722e-05
-5.57373e-05
3.30383e-05
-5.90597e-05
2.55564e-05
-6.11947e-05
1.79243e-05
-6.20178e-05
1.0223e-05
-6.13837e-05
2.5292e-06
-4.98844e-06
-5.92346e-05
-1.02072e-05
7.53617e-05
-1.85119e-05
7.29508e-05
-2.51369e-05
6.6997e-05
-3.09845e-05
5.97054e-05
-3.61814e-05
5.24048e-05
-4.07549e-05
4.48453e-05
-4.4623e-05
3.69036e-05
-4.76175e-05
2.85515e-05
-4.95627e-05
1.98672e-05
-5.02227e-05
1.08844e-05
-4.93812e-05
1.68609e-06
-7.41859e-06
-4.69489e-05
-6.86248e-06
8.2221e-05
-1.1722e-05
7.7807e-05
-1.64844e-05
7.17579e-05
-2.08649e-05
6.40826e-05
-2.48805e-05
5.642e-05
-2.85499e-05
4.85118e-05
-3.17499e-05
4.01044e-05
-3.43121e-05
3.11114e-05
-3.59776e-05
2.15345e-05
-3.64579e-05
1.13634e-05
-3.54926e-05
7.23383e-07
-1.00185e-05
-3.28928e-05
-1.79327e-06
8.401e-05
-4.63974e-06
8.065e-05
-6.96114e-06
7.4075e-05
-9.47569e-06
6.65938e-05
-1.21146e-05
5.90559e-05
-1.47303e-05
5.11255e-05
-1.71176e-05
4.24902e-05
-1.90522e-05
3.30453e-05
-2.02726e-05
2.27546e-05
-2.04747e-05
1.15659e-05
-1.93451e-05
-4.0545e-07
-1.27852e-05
-1.65772e-05
2.33484e-06
8.16641e-05
3.98625e-06
7.89905e-05
4.19556e-06
7.38591e-05
3.33207e-06
6.74517e-05
2.00596e-06
6.0377e-05
4.73518e-07
5.26545e-05
-9.93605e-07
4.39545e-05
-2.13662e-06
3.41866e-05
-2.71742e-06
2.33343e-05
-2.43142e-06
1.12796e-05
-9.38785e-07
-1.89781e-06
-1.58936e-05
2.17022e-06
7.97744e-06
7.36827e-05
1.2521e-05
7.44399e-05
1.59283e-05
7.04458e-05
1.70298e-05
6.63443e-05
1.70144e-05
6.03875e-05
1.65254e-05
5.31397e-05
1.59949e-05
4.44819e-05
1.57435e-05
3.44364e-05
1.59824e-05
2.3094e-05
1.70367e-05
1.02252e-05
1.9255e-05
-4.11626e-06
-1.97683e-05
2.31306e-05
1.62269e-05
5.74454e-05
2.54529e-05
6.52072e-05
2.96223e-05
6.62707e-05
3.168e-05
6.42807e-05
3.25025e-05
5.95594e-05
3.28107e-05
5.28265e-05
3.30959e-05
4.41931e-05
3.37361e-05
3.37931e-05
3.49168e-05
2.19117e-05
3.70579e-05
8.08304e-06
4.05299e-05
-7.58836e-06
-2.50989e-05
4.58611e-05
2.34767e-05
3.3964e-05
3.66383e-05
5.2043e-05
4.3391e-05
5.95147e-05
4.63765e-05
6.1292e-05
4.7779e-05
5.81533e-05
4.86793e-05
5.19229e-05
4.96359e-05
4.32337e-05
5.11559e-05
3.2271e-05
5.34357e-05
1.96307e-05
5.71284e-05
4.38956e-06
6.25823e-05
-1.30422e-05
7.01124e-05
-3.26282e-05
-0.00010853
-1.14331e-06
-0.000105827
-2.70257e-06
-0.000101639
-4.18508e-06
-9.59946e-05
-5.64175e-06
-8.8894e-05
-7.09659e-06
-8.02809e-05
-8.60966e-06
-7.00677e-05
-1.02088e-05
-5.81444e-05
-1.19185e-05
-4.43721e-05
-1.3768e-05
-2.87683e-05
-1.55984e-05
-1.21248e-05
-1.66323e-05
-1.2121e-05
-9.24359e-05
-2.90706e-06
-8.95503e-05
-5.58762e-06
-8.56542e-05
-8.07843e-06
-8.08883e-05
-1.04055e-05
-7.532e-05
-1.26613e-05
-6.89812e-05
-1.49453e-05
-6.18057e-05
-1.73798e-05
-5.3599e-05
-2.01204e-05
-4.40948e-05
-2.32671e-05
-3.27914e-05
-2.68967e-05
-1.90062e-05
-3.04104e-05
-3.11252e-05
-7.95265e-05
-5.31276e-06
-7.60102e-05
-9.10315e-06
-7.16286e-05
-1.24585e-05
-6.66049e-05
-1.54275e-05
-6.11318e-05
-1.81322e-05
-5.52984e-05
-2.07763e-05
-4.9069e-05
-2.36062e-05
-4.22942e-05
-2.68917e-05
-3.46651e-05
-3.08926e-05
-2.59757e-05
-3.55827e-05
-1.51657e-05
-4.12169e-05
-4.62904e-05
-6.75198e-05
-8.3805e-06
-6.33305e-05
-1.3292e-05
-5.83069e-05
-1.7481e-05
-5.27733e-05
-2.096e-05
-4.70366e-05
-2.38673e-05
-4.13436e-05
-2.64674e-05
-3.58256e-05
-2.9122e-05
-3.04654e-05
-3.22493e-05
-2.49585e-05
-3.63974e-05
-1.89172e-05
-4.16226e-05
-1.15248e-05
-4.86085e-05
-5.78128e-05
-5.56575e-05
-1.19568e-05
-5.08949e-05
-1.80545e-05
-4.53036e-05
-2.30711e-05
-3.93112e-05
-2.69513e-05
-3.33608e-05
-2.98158e-05
-2.78395e-05
-3.19867e-05
-2.30094e-05
-3.39498e-05
-1.89713e-05
-3.62857e-05
-1.55292e-05
-3.98379e-05
-1.19896e-05
-4.51597e-05
-7.28252e-06
-5.33091e-05
-6.50932e-05
-4.29815e-05
-1.59247e-05
-3.77509e-05
-2.32826e-05
-3.17037e-05
-2.91171e-05
-2.5363e-05
-3.32889e-05
-1.92986e-05
-3.58775e-05
-1.40229e-05
-3.72588e-05
-9.91053e-06
-3.80589e-05
-7.10677e-06
-3.9086e-05
-5.55783e-06
-4.1381e-05
-4.69188e-06
-4.60206e-05
-3.52871e-06
-5.44667e-05
-6.86145e-05
-2.86443e-05
-2.01702e-05
-2.30681e-05
-2.88574e-05
-1.67092e-05
-3.54721e-05
-1.01844e-05
-3.98104e-05
-4.16427e-06
-4.18927e-05
7.29595e-07
-4.21483e-05
4.0346e-06
-4.13587e-05
5.49095e-06
-4.05363e-05
5.08407e-06
-4.09718e-05
3.21579e-06
-4.41447e-05
9.73942e-07
-5.2212e-05
-6.76383e-05
-1.20723e-05
-2.46736e-05
-6.21593e-06
-3.47113e-05
2.99628e-07
-4.1985e-05
6.79473e-06
-4.63014e-05
1.25271e-05
-4.76213e-05
1.68017e-05
-4.64179e-05
1.91212e-05
-4.36741e-05
1.91494e-05
-4.0562e-05
1.67532e-05
-3.8569e-05
1.20968e-05
-3.94847e-05
6.14496e-06
-4.62565e-05
-6.14835e-05
7.0793e-06
-2.95812e-05
1.32597e-05
-4.08897e-05
1.97766e-05
-4.84989e-05
2.59543e-05
-5.24756e-05
3.10713e-05
-5.27343e-05
3.43971e-05
-4.97401e-05
3.55057e-05
-4.47796e-05
3.40541e-05
-3.91066e-05
2.9754e-05
-3.42696e-05
2.24756e-05
-3.22024e-05
1.25192e-05
-3.62877e-05
-4.8965e-05
2.88535e-05
-3.53027e-05
3.55589e-05
-4.75928e-05
4.19171e-05
-5.48539e-05
4.74145e-05
-5.797e-05
5.14649e-05
-5.6781e-05
5.3403e-05
-5.16758e-05
5.30375e-05
-4.44118e-05
5.01227e-05
-3.61917e-05
4.41999e-05
-2.83437e-05
3.46774e-05
-2.26779e-05
2.07584e-05
-2.23704e-05
-2.81978e-05
5.30082e-05
-4.24479e-05
6.03921e-05
-5.49739e-05
6.6365e-05
-6.08232e-05
7.08156e-05
-6.24172e-05
7.32112e-05
-5.91735e-05
7.32755e-05
-5.17376e-05
7.11921e-05
-4.23268e-05
6.69283e-05
-3.19263e-05
5.99601e-05
-2.13766e-05
4.93833e-05
-1.21005e-05
3.22848e-05
-5.26564e-06
4.08017e-06
7.88672e-05
-5.12012e-05
8.63461e-05
-6.24504e-05
9.15417e-05
-6.60164e-05
9.45687e-05
-6.54416e-05
9.4849e-05
-5.94523e-05
9.2824e-05
-4.97111e-05
8.90332e-05
-3.85355e-05
8.36868e-05
-2.65804e-05
7.63937e-05
-1.40826e-05
6.61783e-05
-1.88647e-06
4.83055e-05
1.26027e-05
5.23887e-05
4.62561e-06
-4.62763e-06
-3.94049e-06
8.57328e-06
-2.30244e-05
1.90846e-05
-4.36061e-05
2.05821e-05
-6.0874e-05
1.72693e-05
-7.52935e-05
1.44173e-05
-8.67812e-05
1.14896e-05
-9.58181e-05
9.03385e-06
-0.000102452
6.63624e-06
-0.000106891
4.43643e-06
-0.000109295
2.40575e-06
5.25978e-07
-0.000109823
-2.08476e-05
1.62203e-05
-3.91809e-05
2.69071e-05
-5.13113e-05
3.12146e-05
-6.03615e-05
2.96316e-05
-6.89244e-05
2.58319e-05
-7.65605e-05
2.20517e-05
-8.31288e-05
1.8058e-05
-8.8209e-05
1.41121e-05
-9.18382e-05
1.0266e-05
-9.40125e-05
6.60911e-06
-9.47745e-05
3.16878e-06
-2.11077e-08
-9.42284e-05
-1.87168e-05
3.49353e-05
-3.40322e-05
4.22215e-05
-4.51322e-05
4.23131e-05
-5.37272e-05
3.82246e-05
-6.15275e-05
3.36311e-05
-6.82409e-05
2.8763e-05
-7.3815e-05
2.36318e-05
-7.81368e-05
1.84322e-05
-8.11327e-05
1.32623e-05
-8.27606e-05
8.23587e-06
-8.30101e-05
3.41906e-06
-1.14285e-06
-8.18886e-05
-1.65255e-05
5.14589e-05
-2.88594e-05
5.45529e-05
-3.86593e-05
5.2111e-05
-4.70686e-05
4.66307e-05
-5.43393e-05
4.09e-05
-6.04231e-05
3.48443e-05
-6.53418e-05
2.85498e-05
-6.90511e-05
2.21397e-05
-7.14822e-05
1.56935e-05
-7.25569e-05
9.30949e-06
-7.22179e-05
3.08087e-06
-2.90099e-06
-7.04601e-05
-1.40735e-05
6.55296e-05
-2.42535e-05
6.47321e-05
-3.24901e-05
6.0344e-05
-3.96757e-05
5.3815e-05
-4.59339e-05
4.71538e-05
-5.12713e-05
4.01814e-05
-5.5646e-05
3.29201e-05
-5.89302e-05
2.54254e-05
-6.10346e-05
1.77937e-05
-6.18243e-05
1.0102e-05
-6.11693e-05
2.42224e-06
-5.05654e-06
-5.90101e-05
-1.01731e-05
7.57018e-05
-1.84861e-05
7.30418e-05
-2.51093e-05
6.69665e-05
-3.0948e-05
5.96483e-05
-3.61166e-05
5.23228e-05
-4.06583e-05
4.47164e-05
-4.44757e-05
3.67402e-05
-4.74209e-05
2.83636e-05
-4.93119e-05
1.9689e-05
-4.99345e-05
1.07184e-05
-4.90633e-05
1.55648e-06
-7.49189e-06
-4.66317e-05
-6.86523e-06
8.25622e-05
-1.1716e-05
7.78901e-05
-1.64661e-05
7.17123e-05
-2.08216e-05
6.40009e-05
-2.47994e-05
5.62951e-05
-2.84166e-05
4.83326e-05
-3.15607e-05
3.98797e-05
-3.40597e-05
3.08631e-05
-3.56635e-05
2.12894e-05
-3.60907e-05
1.11477e-05
-3.51016e-05
5.65946e-07
-1.00873e-05
-3.25031e-05
-1.82419e-06
8.43795e-05
-4.66474e-06
8.07251e-05
-6.96602e-06
7.40066e-05
-9.43826e-06
6.64679e-05
-1.20232e-05
5.88757e-05
-1.4577e-05
5.08828e-05
-1.68974e-05
4.21973e-05
-1.87638e-05
3.27274e-05
-1.99202e-05
2.24446e-05
-2.0074e-05
1.13013e-05
-1.89229e-05
-5.84371e-07
-1.28411e-05
-1.61679e-05
2.29771e-06
8.20773e-05
3.95663e-06
7.90587e-05
4.18683e-06
7.37732e-05
3.36622e-06
6.7281e-05
2.09873e-06
6.01373e-05
6.31903e-07
5.23446e-05
-7.66422e-07
4.3592e-05
-1.84357e-06
3.38016e-05
-2.36783e-06
2.29671e-05
-2.04525e-06
1.09782e-05
-5.44892e-07
-2.0845e-06
-1.59174e-05
2.53259e-06
7.93222e-06
7.41361e-05
1.24838e-05
7.45034e-05
1.59133e-05
7.03325e-05
1.7055e-05
6.61337e-05
1.70975e-05
6.00888e-05
1.66729e-05
5.27643e-05
1.62063e-05
4.40548e-05
1.60127e-05
3.39922e-05
1.62953e-05
2.26831e-05
1.73673e-05
9.90538e-06
1.95698e-05
-4.2864e-06
-1.97283e-05
2.3382e-05
1.628e-05
5.78539e-05
2.54358e-05
6.53401e-05
2.95967e-05
6.61721e-05
3.16897e-05
6.40334e-05
3.25694e-05
5.9202e-05
3.2937e-05
5.2391e-05
3.32774e-05
4.37092e-05
3.39656e-05
3.33002e-05
3.51757e-05
2.14703e-05
3.7313e-05
7.76697e-06
4.07371e-05
-7.71064e-06
-2.49513e-05
4.59612e-05
2.35589e-05
3.42924e-05
3.666e-05
5.22405e-05
4.33591e-05
5.94635e-05
4.63767e-05
6.10117e-05
4.78359e-05
5.77384e-05
4.87874e-05
5.14346e-05
4.97904e-05
4.27022e-05
5.13488e-05
3.17388e-05
5.36431e-05
1.9174e-05
5.73043e-05
4.10505e-06
6.26688e-05
-1.30748e-05
7.00498e-05
-3.2331e-05
-0.000108654
-1.16672e-06
-0.000105935
-2.71932e-06
-0.000101731
-4.20195e-06
-9.60736e-05
-5.6568e-06
-8.89626e-05
-7.1088e-06
-8.03373e-05
-8.62392e-06
-7.01138e-05
-1.02215e-05
-5.81788e-05
-1.1933e-05
-4.43945e-05
-1.37826e-05
-2.87804e-05
-1.56121e-05
-1.21278e-05
-1.66489e-05
-1.21264e-05
-9.24531e-05
-2.94055e-06
-8.95586e-05
-5.61386e-06
-8.56599e-05
-8.09893e-06
-8.08943e-05
-1.04214e-05
-7.53264e-05
-1.26748e-05
-6.8991e-05
-1.49581e-05
-6.18179e-05
-1.73925e-05
-5.36146e-05
-2.01343e-05
-4.41123e-05
-2.32827e-05
-3.28068e-05
-2.69158e-05
-1.90221e-05
-3.04308e-05
-3.11477e-05
-7.94767e-05
-5.3515e-06
-7.59617e-05
-9.12839e-06
-7.15869e-05
-1.24727e-05
-6.65731e-05
-1.54343e-05
-6.11113e-05
-1.81355e-05
-5.52886e-05
-2.07796e-05
-4.90681e-05
-2.36117e-05
-4.22994e-05
-2.69014e-05
-3.46736e-05
-3.09068e-05
-2.59841e-05
-3.56035e-05
-1.51717e-05
-4.12419e-05
-4.6319e-05
-6.73927e-05
-8.41762e-06
-6.32144e-05
-1.33065e-05
-5.8209e-05
-1.74767e-05
-5.26978e-05
-2.09447e-05
-4.69841e-05
-2.38478e-05
-4.13123e-05
-2.64504e-05
-3.58111e-05
-2.91113e-05
-3.04623e-05
-3.22487e-05
-2.49613e-05
-3.64062e-05
-1.89234e-05
-4.16401e-05
-1.15311e-05
-4.86336e-05
-5.78471e-05
-5.54443e-05
-1.19855e-05
-5.07036e-05
-1.80438e-05
-4.5147e-05
-2.30334e-05
-3.91917e-05
-2.68972e-05
-3.32788e-05
-2.97593e-05
-2.77894e-05
-3.19374e-05
-2.29846e-05
-3.3914e-05
-1.8964e-05
-3.62676e-05
-1.5532e-05
-3.98357e-05
-1.19974e-05
-4.51737e-05
-7.28583e-06
-5.33355e-05
-6.51308e-05
-4.26818e-05
-1.59304e-05
-3.74931e-05
-2.3233e-05
-3.14957e-05
-2.90263e-05
-2.52106e-05
-3.31799e-05
-1.91964e-05
-3.57696e-05
-1.39624e-05
-3.71676e-05
-9.88008e-06
-3.7993e-05
-7.09595e-06
-3.90477e-05
-5.55975e-06
-4.13688e-05
-4.69501e-06
-4.6027e-05
-3.53387e-06
-5.44937e-05
-6.86543e-05
-2.82896e-05
-2.0143e-05
-2.27692e-05
-2.87495e-05
-1.6479e-05
-3.53132e-05
-1.00224e-05
-3.96317e-05
-4.06311e-06
-4.17242e-05
7.84035e-07
-4.201e-05
4.05706e-06
-4.12615e-05
5.49402e-06
-4.048e-05
5.08128e-06
-4.09486e-05
3.20775e-06
-4.41521e-05
9.73131e-07
-5.22374e-05
-6.76789e-05
-1.17117e-05
-2.4597e-05
-5.92824e-06
-3.45303e-05
5.07045e-07
-4.17445e-05
6.9258e-06
-4.60466e-05
1.25972e-05
-4.7391e-05
1.68287e-05
-4.62377e-05
1.91236e-05
-4.35522e-05
1.91414e-05
-4.04942e-05
1.67402e-05
-3.85455e-05
1.20889e-05
-3.94883e-05
6.137e-06
-4.62858e-05
-6.15318e-05
7.37279e-06
-2.94354e-05
1.34652e-05
-4.06198e-05
1.98971e-05
-4.8173e-05
2.60038e-05
-5.21497e-05
3.10723e-05
-5.2456e-05
3.43734e-05
-4.95356e-05
3.54757e-05
-4.46519e-05
3.40276e-05
-3.90439e-05
2.9738e-05
-3.42525e-05
2.24648e-05
-3.22176e-05
1.25149e-05
-3.63213e-05
-4.902e-05
2.90079e-05
-3.50593e-05
3.56108e-05
-4.72196e-05
4.18892e-05
-5.44485e-05
4.73337e-05
-5.75908e-05
5.13639e-05
-5.64839e-05
5.33094e-05
-5.14789e-05
5.29665e-05
-4.43077e-05
5.00784e-05
-3.61549e-05
4.41775e-05
-2.83524e-05
3.46733e-05
-2.27082e-05
2.07589e-05
-2.24138e-05
-2.82609e-05
5.2981e-05
-4.20767e-05
6.02603e-05
-5.4496e-05
6.61702e-05
-6.0355e-05
7.05925e-05
-6.20105e-05
7.30041e-05
-5.88933e-05
7.31141e-05
-5.15873e-05
7.10852e-05
-4.2278e-05
6.6869e-05
-3.19384e-05
5.994e-05
-2.1423e-05
4.93864e-05
-1.21591e-05
3.22908e-05
-5.31837e-06
4.02664e-06
7.86715e-05
-5.06963e-05
8.60783e-05
-6.19007e-05
9.12382e-05
-6.55126e-05
9.42698e-05
-6.50407e-05
9.45998e-05
-5.92221e-05
9.26403e-05
-4.96273e-05
8.89163e-05
-3.85539e-05
8.36293e-05
-2.6652e-05
7.63827e-05
-1.41784e-05
6.61986e-05
-1.97645e-06
4.83384e-05
1.2538e-05
5.23563e-05
4.5931e-06
-4.6113e-06
-4.08824e-06
8.67414e-06
-2.32455e-05
1.91546e-05
-4.3831e-05
2.05798e-05
-6.11125e-05
1.72813e-05
-7.5543e-05
1.44233e-05
-8.7035e-05
1.14925e-05
-9.60667e-05
9.025e-06
-0.000102689
6.62355e-06
-0.000107124
4.42985e-06
-0.000109513
2.39189e-06
5.08148e-07
-0.000110023
-2.09373e-05
1.63217e-05
-3.928e-05
2.70147e-05
-5.14146e-05
3.12876e-05
-6.0509e-05
2.96708e-05
-6.90975e-05
2.58684e-05
-7.67544e-05
2.20763e-05
-8.33391e-05
1.8076e-05
-8.84356e-05
1.41176e-05
-9.20755e-05
1.02634e-05
-9.42492e-05
6.60112e-06
-9.50081e-05
3.15218e-06
-4.63868e-08
-9.44544e-05
-1.87666e-05
3.50857e-05
-3.41098e-05
4.23558e-05
-4.52368e-05
4.2413e-05
-5.38698e-05
3.83012e-05
-6.17013e-05
3.36984e-05
-6.84451e-05
2.88171e-05
-7.40438e-05
2.36736e-05
-7.83866e-05
1.8458e-05
-8.13964e-05
1.32731e-05
-8.30289e-05
8.23247e-06
-8.32763e-05
3.40024e-06
-1.17837e-06
-8.21444e-05
-1.65629e-05
5.1646e-05
-2.8933e-05
5.47233e-05
-3.87697e-05
5.22478e-05
-4.72202e-05
4.6749e-05
-5.45288e-05
4.10052e-05
-6.06485e-05
3.49342e-05
-6.55969e-05
2.86211e-05
-6.93303e-05
2.21895e-05
-7.17768e-05
1.57194e-05
-7.28564e-05
9.31102e-06
-7.25158e-05
3.05994e-06
-2.94861e-06
-7.07458e-05
-1.41117e-05
6.57533e-05
-2.43369e-05
6.49444e-05
-3.26146e-05
6.05221e-05
-3.98402e-05
5.39706e-05
-4.61362e-05
4.72984e-05
-5.15139e-05
4.03087e-05
-5.59231e-05
3.30285e-05
-5.92384e-05
2.55028e-05
-6.13585e-05
1.78385e-05
-6.21586e-05
1.01097e-05
-6.14997e-05
2.40063e-06
-5.12228e-06
-5.9327e-05
-1.02015e-05
7.5947e-05
-1.85908e-05
7.33281e-05
-2.52426e-05
6.71676e-05
-3.11125e-05
5.98354e-05
-3.63207e-05
5.25012e-05
-4.08975e-05
4.48822e-05
-4.47557e-05
3.68827e-05
-4.77331e-05
2.84784e-05
-4.96568e-05
1.97592e-05
-5.02915e-05
1.0744e-05
-4.94213e-05
1.52813e-06
-7.57655e-06
-4.69664e-05
-6.80078e-06
8.27339e-05
-1.18425e-05
7.83603e-05
-1.65885e-05
7.19062e-05
-2.09754e-05
6.42147e-05
-2.4992e-05
5.65125e-05
-2.86527e-05
4.8537e-05
-3.18344e-05
4.00616e-05
-3.43702e-05
3.10099e-05
-3.60011e-05
2.13891e-05
-3.64477e-05
1.11875e-05
-3.54556e-05
5.36348e-07
-1.01965e-05
-3.28375e-05
-2.11683e-06
8.48438e-05
-4.45013e-06
8.06847e-05
-6.98058e-06
7.44294e-05
-9.55287e-06
6.67797e-05
-1.21918e-05
5.91454e-05
-1.47886e-05
5.11288e-05
-1.71465e-05
4.24152e-05
-1.90451e-05
3.29053e-05
-2.0227e-05
2.25682e-05
-2.03955e-05
1.13542e-05
-1.92425e-05
-6.18122e-07
-1.29753e-05
-1.64644e-05
2.53223e-06
8.22975e-05
3.68329e-06
7.9524e-05
4.07138e-06
7.40335e-05
3.25624e-06
6.75873e-05
1.95814e-06
6.0437e-05
4.56945e-07
5.26241e-05
-9.72078e-07
4.38395e-05
-2.07325e-06
3.40024e-05
-2.61443e-06
2.31062e-05
-2.29839e-06
1.10356e-05
-7.90373e-07
-2.12814e-06
-1.60825e-05
2.31547e-06
7.86489e-06
7.44274e-05
1.25833e-05
7.47996e-05
1.58984e-05
7.07116e-05
1.69931e-05
6.64874e-05
1.70007e-05
6.04236e-05
1.65459e-05
5.30743e-05
1.6056e-05
4.43247e-05
1.58488e-05
3.4206e-05
1.61265e-05
2.28252e-05
1.72054e-05
9.95427e-06
1.94284e-05
-4.35335e-06
-1.99391e-05
2.32836e-05
1.63734e-05
5.80443e-05
2.55081e-05
6.56594e-05
2.96326e-05
6.65829e-05
3.1684e-05
6.44309e-05
3.25263e-05
5.95754e-05
3.2864e-05
5.27311e-05
3.31854e-05
4.39978e-05
3.38685e-05
3.3518e-05
3.50857e-05
2.16039e-05
3.72461e-05
7.79043e-06
4.07116e-05
-7.82149e-06
-2.52349e-05
4.60055e-05
2.36396e-05
3.44041e-05
3.6768e-05
5.25305e-05
4.34676e-05
5.98828e-05
4.64373e-05
6.14588e-05
4.78515e-05
5.81587e-05
4.87682e-05
5.18104e-05
4.97514e-05
4.30111e-05
5.13101e-05
3.19556e-05
5.36213e-05
1.92897e-05
5.73247e-05
4.08448e-06
6.27573e-05
-1.3256e-05
7.02376e-05
-3.27162e-05
-0.000108838
-1.18257e-06
-0.000106097
-2.74066e-06
-0.000101872
-4.2212e-06
-9.61925e-05
-5.67752e-06
-8.90603e-05
-7.12833e-06
-8.04156e-05
-8.642e-06
-7.01739e-05
-1.02378e-05
-5.8223e-05
-1.19472e-05
-4.44259e-05
-1.37937e-05
-2.88021e-05
-1.56198e-05
-1.21393e-05
-1.66545e-05
-1.21364e-05
-9.26629e-05
-2.97181e-06
-8.97514e-05
-5.65166e-06
-8.58299e-05
-8.13968e-06
-8.10422e-05
-1.04634e-05
-7.54515e-05
-1.27156e-05
-6.90952e-05
-1.49959e-05
-6.19025e-05
-1.74268e-05
-5.36816e-05
-2.01644e-05
-4.41617e-05
-2.33095e-05
-3.28386e-05
-2.69389e-05
-1.90346e-05
-3.04531e-05
-3.11696e-05
-7.97136e-05
-5.40141e-06
-7.61748e-05
-9.18965e-06
-7.17725e-05
-1.25404e-05
-6.67306e-05
-1.55038e-05
-6.12417e-05
-1.82026e-05
-5.53943e-05
-2.08414e-05
-4.91518e-05
-2.36668e-05
-4.23642e-05
-2.69493e-05
-3.47218e-05
-3.09492e-05
-2.60178e-05
-3.56404e-05
-1.5189e-05
-4.12794e-05
-4.63584e-05
-6.76558e-05
-8.49086e-06
-6.34469e-05
-1.33982e-05
-5.84066e-05
-1.75798e-05
-5.28591e-05
-2.10503e-05
-4.7111e-05
-2.39493e-05
-4.14083e-05
-2.65425e-05
-3.58815e-05
-2.91918e-05
-3.05131e-05
-3.23157e-05
-2.49984e-05
-3.64624e-05
-1.8946e-05
-4.1692e-05
-1.15419e-05
-4.86834e-05
-5.78984e-05
-5.573e-05
-1.20876e-05
-5.09516e-05
-1.81768e-05
-4.5349e-05
-2.31815e-05
-3.9349e-05
-2.70495e-05
-3.33935e-05
-2.99033e-05
-2.78685e-05
-3.20659e-05
-2.30349e-05
-3.40236e-05
-1.89928e-05
-3.63566e-05
-1.55462e-05
-3.99079e-05
-1.20025e-05
-4.5234e-05
-7.28976e-06
-5.33908e-05
-6.51866e-05
-4.29832e-05
-1.60722e-05
-3.77437e-05
-2.34148e-05
-3.16931e-05
-2.92317e-05
-2.53526e-05
-3.33878e-05
-1.92902e-05
-3.59637e-05
-1.40172e-05
-3.73361e-05
-9.90677e-06
-3.81316e-05
-7.10378e-06
-3.91569e-05
-5.55466e-06
-4.14521e-05
-4.68973e-06
-4.60949e-05
-3.52782e-06
-5.45484e-05
-6.8708e-05
-2.85813e-05
-2.03271e-05
-2.30055e-05
-2.89907e-05
-1.66516e-05
-3.55832e-05
-1.01342e-05
-3.99032e-05
-4.12262e-06
-4.19718e-05
7.63327e-07
-4.22189e-05
4.06193e-06
-4.14262e-05
5.51364e-06
-4.06038e-05
5.10326e-06
-4.10403e-05
3.23083e-06
-4.42162e-05
9.8398e-07
-5.22904e-05
-6.77222e-05
-1.19627e-05
-2.48292e-05
-6.11715e-06
-3.48354e-05
3.84476e-07
-4.20837e-05
6.86609e-06
-4.63822e-05
1.2587e-05
-4.76903e-05
1.68522e-05
-4.64807e-05
1.91648e-05
-4.37359e-05
1.91878e-05
-4.06252e-05
1.67866e-05
-3.86336e-05
1.21241e-05
-3.95507e-05
6.16242e-06
-4.63259e-05
-6.15508e-05
7.2063e-06
-2.97205e-05
1.33636e-05
-4.09925e-05
1.98593e-05
-4.8578e-05
2.60216e-05
-5.25426e-05
3.11291e-05
-5.27953e-05
3.445e-05
-4.97991e-05
3.55567e-05
-4.48405e-05
3.41035e-05
-3.9169e-05
2.98004e-05
-3.43316e-05
2.25152e-05
-3.22623e-05
1.25441e-05
-3.63434e-05
-4.90075e-05
2.89708e-05
-3.54084e-05
3.56413e-05
-4.76628e-05
4.19729e-05
-5.49084e-05
4.74555e-05
-5.80238e-05
5.15019e-05
-5.68396e-05
5.34439e-05
-5.17397e-05
5.30864e-05
-4.44815e-05
5.0178e-05
-3.62609e-05
4.42576e-05
-2.84088e-05
3.47311e-05
-2.27339e-05
2.07943e-05
-2.24085e-05
-2.82051e-05
5.31036e-05
-4.25071e-05
6.04481e-05
-5.5007e-05
6.63931e-05
-6.0852e-05
7.08275e-05
-6.24566e-05
7.32222e-05
-5.92326e-05
7.32995e-05
-5.18157e-05
7.12342e-05
-4.24153e-05
6.69846e-05
-3.20103e-05
6.00263e-05
-2.14517e-05
4.94518e-05
-1.21592e-05
3.23378e-05
-5.28859e-06
4.12581e-06
7.89442e-05
-5.12141e-05
8.63928e-05
-6.24551e-05
9.1567e-05
-6.60256e-05
9.45792e-05
-6.54677e-05
9.48598e-05
-5.95127e-05
9.28469e-05
-4.98021e-05
8.90732e-05
-3.86417e-05
8.37442e-05
-2.66821e-05
7.64652e-05
-1.41723e-05
6.62576e-05
-1.95279e-06
4.83717e-05
1.25929e-05
5.25002e-05
4.67685e-06
-4.68061e-06
-3.74133e-06
8.42403e-06
-2.2751e-05
1.901e-05
-4.33909e-05
2.06397e-05
-6.06991e-05
1.73094e-05
-7.51685e-05
1.44667e-05
-8.66912e-05
1.15244e-05
-9.57599e-05
9.06523e-06
-0.000102424
6.66613e-06
-0.000106896
4.46892e-06
-0.000109324
2.42999e-06
5.46433e-07
-0.000109873
-2.07396e-05
1.60587e-05
-3.91118e-05
2.67965e-05
-5.12927e-05
3.11902e-05
-6.03227e-05
2.96686e-05
-6.88808e-05
2.5867e-05
-7.6515e-05
2.20988e-05
-8.30937e-05
1.8103e-05
-8.8192e-05
1.41613e-05
-9.18409e-05
1.03155e-05
-9.40329e-05
6.65896e-06
-9.48154e-05
3.21334e-06
1.75815e-08
-9.42878e-05
-1.86943e-05
3.47509e-05
-3.40177e-05
4.21185e-05
-4.51196e-05
4.22904e-05
-5.36979e-05
3.82447e-05
-6.14917e-05
3.36595e-05
-6.82045e-05
2.88091e-05
-7.37885e-05
2.36866e-05
-7.81257e-05
1.84964e-05
-8.1142e-05
1.33321e-05
-8.27913e-05
8.30685e-06
-8.30641e-05
3.48678e-06
-1.08298e-06
-8.19641e-05
-1.64991e-05
5.12477e-05
-2.88276e-05
5.44443e-05
-3.86185e-05
5.2079e-05
-4.70151e-05
4.66378e-05
-5.42861e-05
4.09285e-05
-6.03771e-05
3.48973e-05
-6.53122e-05
2.86208e-05
-6.90433e-05
2.22254e-05
-7.14994e-05
1.57882e-05
-7.26015e-05
9.40764e-06
-7.22921e-05
3.17806e-06
-2.81642e-06
-7.05594e-05
-1.40403e-05
6.5285e-05
-2.42058e-05
6.46086e-05
-3.2428e-05
6.02975e-05
-3.96048e-05
5.38128e-05
-4.58647e-05
4.71837e-05
-5.12128e-05
4.02449e-05
-5.56096e-05
3.30128e-05
-5.89234e-05
2.55405e-05
-6.10582e-05
1.79183e-05
-6.18833e-05
1.02355e-05
-6.12648e-05
2.55539e-06
-4.94228e-06
-5.91353e-05
-1.01427e-05
7.54262e-05
-1.84259e-05
7.28883e-05
-2.50304e-05
6.69009e-05
-3.08624e-05
5.96389e-05
-3.60336e-05
5.2355e-05
-4.05885e-05
4.47925e-05
-4.44304e-05
3.68573e-05
-4.74102e-05
2.85127e-05
-4.93388e-05
1.98512e-05
-5.00029e-05
1.08928e-05
-4.91726e-05
1.73061e-06
-7.34397e-06
-4.67754e-05
-6.83456e-06
8.22554e-05
-1.16552e-05
7.7706e-05
-1.63805e-05
7.16214e-05
-2.0725e-05
6.398e-05
-2.47037e-05
5.6328e-05
-2.83327e-05
4.84202e-05
-3.14988e-05
4.00183e-05
-3.40284e-05
3.10426e-05
-3.56764e-05
2.14953e-05
-3.61508e-05
1.1369e-05
-3.52049e-05
7.82961e-07
-9.90189e-06
-3.2644e-05
-1.79436e-06
8.40423e-05
-4.60181e-06
8.05076e-05
-6.87618e-06
7.38885e-05
-9.33465e-06
6.64328e-05
-1.19181e-05
5.89067e-05
-1.44809e-05
5.09791e-05
-1.68201e-05
4.23543e-05
-1.87145e-05
3.29348e-05
-1.99089e-05
2.26882e-05
-2.01049e-05
1.15646e-05
-1.89963e-05
-3.2528e-07
-1.26177e-05
-1.62796e-05
2.31901e-06
8.17185e-05
4.00534e-06
7.88134e-05
4.27202e-06
7.36182e-05
3.47013e-06
6.72268e-05
2.20734e-06
6.01632e-05
7.35392e-07
5.24456e-05
-6.76432e-07
4.37622e-05
-1.77464e-06
3.40297e-05
-2.32694e-06
2.32384e-05
-2.03713e-06
1.12739e-05
-5.72097e-07
-1.79041e-06
-1.56603e-05
2.4715e-06
7.95196e-06
7.37568e-05
1.25282e-05
7.42329e-05
1.59843e-05
7.01503e-05
1.71481e-05
6.60569e-05
1.71992e-05
6.01057e-05
1.67744e-05
5.28651e-05
1.63005e-05
4.4232e-05
1.6094e-05
3.42328e-05
1.63587e-05
2.29718e-05
1.74087e-05
1.02227e-05
1.95863e-05
-3.96775e-06
-1.94484e-05
2.33753e-05
1.62166e-05
5.75373e-05
2.54171e-05
6.50241e-05
2.96362e-05
6.59312e-05
3.17579e-05
6.39273e-05
3.26504e-05
5.92056e-05
3.30234e-05
5.2486e-05
3.3362e-05
4.38877e-05
3.40435e-05
3.35471e-05
3.52429e-05
2.17693e-05
3.73656e-05
8.09851e-06
4.07746e-05
-7.37716e-06
-2.46644e-05
4.59914e-05
2.34821e-05
3.40517e-05
3.65843e-05
5.19228e-05
4.33376e-05
5.91676e-05
4.63992e-05
6.0861e-05
4.78787e-05
5.77212e-05
4.88427e-05
5.15167e-05
4.98476e-05
4.28785e-05
5.14014e-05
3.19899e-05
5.36868e-05
1.94815e-05
5.73357e-05
4.44847e-06
6.26944e-05
-1.27359e-05
7.00901e-05
-3.2059e-05
-0.00010872
-1.14999e-06
-0.000106011
-2.71022e-06
-0.000101814
-4.19458e-06
-9.61582e-05
-5.65588e-06
-8.90433e-05
-7.11271e-06
-8.04126e-05
-8.62966e-06
-7.01778e-05
-1.02328e-05
-5.82316e-05
-1.19445e-05
-4.44329e-05
-1.37971e-05
-2.88043e-05
-1.56267e-05
-1.21376e-05
-1.66633e-05
-1.21363e-05
-9.25264e-05
-2.91008e-06
-8.96441e-05
-5.59282e-06
-8.57499e-05
-8.08712e-06
-8.09856e-05
-1.04195e-05
-7.54153e-05
-1.26812e-05
-6.90722e-05
-1.49718e-05
-6.18904e-05
-1.74127e-05
-5.36742e-05
-2.01589e-05
-4.41587e-05
-2.33105e-05
-3.28388e-05
-2.69449e-05
-1.90394e-05
-3.04601e-05
-3.11751e-05
-7.95684e-05
-5.30483e-06
-7.60636e-05
-9.09747e-06
-7.16915e-05
-1.24582e-05
-6.66749e-05
-1.54355e-05
-6.12049e-05
-1.81501e-05
-5.53709e-05
-2.08048e-05
-4.91375e-05
-2.3645e-05
-4.23548e-05
-2.69402e-05
-3.47146e-05
-3.09492e-05
-2.60111e-05
-3.56468e-05
-1.51851e-05
-4.12848e-05
-4.63599e-05
-6.75094e-05
-8.35355e-06
-6.33397e-05
-1.32672e-05
-5.83336e-05
-1.7463e-05
-5.2814e-05
-2.09545e-05
-4.70861e-05
-2.38766e-05
-4.13973e-05
-2.64929e-05
-3.58785e-05
-2.91623e-05
-3.05133e-05
-3.2304e-05
-2.49977e-05
-3.64634e-05
-1.89454e-05
-4.1698e-05
-1.1542e-05
-4.86878e-05
-5.78993e-05
-5.55891e-05
-1.19023e-05
-5.08554e-05
-1.79975e-05
-4.52944e-05
-2.30246e-05
-3.93242e-05
-2.69218e-05
-3.339e-05
-2.98098e-05
-2.78763e-05
-3.20041e-05
-2.30483e-05
-3.39887e-05
-1.90075e-05
-3.6343e-05
-1.55596e-05
-3.99093e-05
-1.20129e-05
-4.52439e-05
-7.29321e-06
-5.3399e-05
-6.51908e-05
-4.2847e-05
-1.58254e-05
-3.7665e-05
-2.31806e-05
-3.16592e-05
-2.90257e-05
-2.53539e-05
-3.32251e-05
-1.93109e-05
-3.58485e-05
-1.40465e-05
-3.72652e-05
-9.93622e-06
-3.80956e-05
-7.12974e-06
-3.91462e-05
-5.57705e-06
-4.14591e-05
-4.70252e-06
-4.61084e-05
-3.5344e-06
-5.45649e-05
-6.87159e-05
-2.84549e-05
-2.00141e-05
-2.29405e-05
-2.8691e-05
-1.66398e-05
-3.53234e-05
-1.01595e-05
-3.97005e-05
-4.16733e-06
-4.18362e-05
7.14505e-07
-4.21422e-05
4.01749e-06
-4.13943e-05
5.47697e-06
-4.06012e-05
5.07814e-06
-4.10536e-05
3.2115e-06
-4.42408e-05
9.77792e-07
-5.2312e-05
-6.77366e-05
-1.18483e-05
-2.44433e-05
-6.06929e-06
-3.44675e-05
3.77827e-07
-4.17666e-05
6.81951e-06
-4.61384e-05
1.25244e-05
-4.75366e-05
1.67899e-05
-4.6404e-05
1.91126e-05
-4.37131e-05
1.91493e-05
-4.06346e-05
1.67578e-05
-3.86604e-05
1.21077e-05
-3.95798e-05
6.152e-06
-4.63575e-05
-6.15766e-05
7.29035e-06
-2.92606e-05
1.33851e-05
-4.05594e-05
1.98324e-05
-4.82104e-05
2.59579e-05
-5.22601e-05
3.10565e-05
-5.26318e-05
3.4385e-05
-4.97294e-05
3.55066e-05
-4.48324e-05
3.40691e-05
-3.91952e-05
2.97813e-05
-3.43697e-05
2.25025e-05
-3.23037e-05
1.25384e-05
-3.63818e-05
-4.90416e-05
2.89912e-05
-3.48747e-05
3.56137e-05
-4.71788e-05
4.19177e-05
-5.45116e-05
4.73777e-05
-5.77167e-05
5.14298e-05
-5.66815e-05
5.33892e-05
-5.16867e-05
5.30501e-05
-4.44921e-05
5.01593e-05
-3.63038e-05
4.42506e-05
-2.8462e-05
3.47328e-05
-2.27821e-05
2.07968e-05
-2.24526e-05
-2.82459e-05
5.30217e-05
-4.19027e-05
6.03463e-05
-5.45006e-05
6.62934e-05
-6.04551e-05
7.07388e-05
-6.21596e-05
7.31649e-05
-5.91055e-05
7.32701e-05
-5.17904e-05
7.12245e-05
-4.24459e-05
6.69891e-05
-3.20685e-05
6.00403e-05
-2.15132e-05
4.94685e-05
-1.22143e-05
3.23497e-05
-5.33488e-06
4.09784e-06
7.87495e-05
-5.05601e-05
8.62269e-05
-6.19759e-05
9.14317e-05
-6.56575e-05
9.44925e-05
-6.52191e-05
9.48306e-05
-5.94425e-05
9.28535e-05
-4.98132e-05
8.90995e-05
-3.8692e-05
8.378e-05
-2.67499e-05
7.65038e-05
-1.42389e-05
6.62955e-05
-2.00749e-06
4.84036e-05
1.25521e-05
5.24968e-05
6.31606e-05
4.99257e-05
-7.9125e-05
6.00547e-05
5.51484e-05
6.06871e-05
5.88816e-05
6.17823e-05
6.0195e-05
6.29101e-05
5.70229e-05
6.40274e-05
5.08031e-05
6.54745e-05
4.17837e-05
6.78911e-05
2.98522e-05
7.15526e-05
1.59671e-05
7.74059e-05
-1.46487e-06
8.53847e-05
-2.10218e-05
-4.22552e-05
9.50119e-05
9.06805e-05
5.52247e-05
-9.59801e-05
8.5192e-05
6.06379e-05
8.11013e-05
6.2973e-05
7.89864e-05
6.23102e-05
7.84056e-05
5.76035e-05
7.88663e-05
5.03415e-05
8.06356e-05
4.00135e-05
8.40532e-05
2.64334e-05
8.96234e-05
1.03959e-05
9.82448e-05
-1.0087e-05
0.000108602
-3.13792e-05
-5.29253e-05
0.000119272
0.000104349
5.75099e-05
-0.000106634
0.000101356
6.36332e-05
9.82183e-05
6.61128e-05
9.57395e-05
6.47903e-05
9.42259e-05
5.91173e-05
9.3901e-05
5.0666e-05
9.56495e-05
3.82639e-05
0.000100285
2.17964e-05
0.000108925
1.75428e-06
0.000120524
-2.16875e-05
0.000131929
-4.27854e-05
-6.26133e-05
0.000141617
0.000112292
-0.000113723
5.89413e-05
0.000110684
6.52425e-05
0.000109006
6.77928e-05
0.000107367