/*--------------------------------*- C++ -*----------------------------------*\
| =========                 |                                                 |
| \\      /  F ield         | OpenFOAM: The Open Source CFD Toolbox           |
|  \\    /   O peration     | Version:  4.0                                   |
|   \\  /    A nd           | Web:      www.OpenFOAM.org                      |
|    \\/     M anipulation  |                                                 |
\*---------------------------------------------------------------------------*/
FoamFile
{
    version     2.0;
    format      ascii;
    class       volVectorField;
    location    "50";
    object      U;
}
// * * * * * * * * * * * * * * * * * * * * * * * * * * * * * * * * * * * * * //

dimensions      [0 1 -1 0 0 0 0];

internalField   nonuniform List<vector> 
3072
(
(-0.150345 2.37124 0)
(0.403674 2.09244 0)
(1.61084 2.21966 2.64912e-19)
(2.3105 3.17577 5.48124e-19)
(2.57226 3.70401 -1.22652e-18)
(2.95862 4.20624 7.03676e-19)
(3.31879 4.50894 6.2627e-19)
(3.71522 4.71363 3.70108e-18)
(4.09283 4.77082 -5.85965e-18)
(4.4463 4.73461 2.95737e-18)
(4.75064 4.60237 -6.91539e-19)
(5.00189 4.39771 7.57448e-20)
(0.762951 3.19505 -1.65598e-19)
(1.69093 3.52361 -4.06138e-19)
(2.33134 4.00386 2.2705e-19)
(2.59059 4.23032 0)
(2.68443 4.48188 6.03699e-19)
(2.85102 4.70149 -8.26537e-19)
(3.03962 4.86696 0)
(3.26621 4.97401 0)
(3.49397 5.01363 0)
(3.7256 4.984 8.52105e-19)
(3.94575 4.88712 3.66352e-19)
(4.14589 4.72787 5.20741e-19)
(1.49191 3.1494 9.30816e-20)
(2.41497 3.6185 0)
(2.86204 3.95487 0)
(3.01988 4.15066 -1.24299e-18)
(3.16026 4.32784 7.29977e-19)
(3.31931 4.47001 -8.43185e-19)
(3.47332 4.57489 1.01619e-18)
(3.63097 4.63791 0)
(3.78361 4.65458 0)
(3.92909 4.62108 -1.78874e-19)
(4.05953 4.53799 -1.90221e-19)
(4.16766 4.40732 8.87552e-19)
(2.4672 3.20229 -3.38416e-19)
(2.99074 3.71139 -6.64092e-19)
(3.22463 3.90496 5.53821e-19)
(3.30751 4.09209 -6.1891e-19)
(3.39155 4.24683 2.06497e-18)
(3.47713 4.37204 -1.8774e-18)
(3.56323 4.46569 -8.66299e-19)
(3.6526 4.52589 -2.07413e-18)
(3.74008 4.54929 -1.32151e-20)
(3.82203 4.5332 1.13082e-18)
(3.89167 4.47424 1.46258e-18)
(3.94161 4.37221 -1.16262e-18)
(2.99673 3.34573 0)
(3.32975 3.8158 2.67478e-19)
(3.45957 3.90242 -6.6024e-19)
(3.48856 4.04044 1.22586e-18)
(3.52901 4.14728 1.44823e-19)
(3.57404 4.23897 8.8342e-19)
(3.62079 4.31221 7.78665e-19)
(3.66781 4.36684 6.7099e-19)
(3.70875 4.39448 -1.41375e-18)
(3.74367 4.39447 1.40638e-18)
(3.76353 4.36005 -2.19286e-18)
(3.76086 4.2901 3.18764e-18)
(3.37913 3.42363 -2.98419e-19)
(3.55684 3.87618 2.40133e-19)
(3.5899 3.8691 1.2288e-18)
(3.58335 3.95441 0)
(3.59166 4.01157 -2.50364e-18)
(3.60491 4.06869 2.40575e-18)
(3.61731 4.12214 0)
(3.62641 4.17193 -1.80726e-18)
(3.62978 4.2071 1.6867e-18)
(3.62198 4.22732 0)
(3.59241 4.22434 7.54889e-20)
(3.54084 4.19096 2.0781e-18)
(3.46887 3.54893 0)
(3.59319 3.91618 -9.1503e-19)
(3.61186 3.81001 1.01492e-18)
(3.59256 3.8335 0)
(3.57822 3.83829 -1.50491e-18)
(3.56819 3.85735 3.15179e-19)
(3.55373 3.88563 2.42869e-18)
(3.53171 3.92262 2.26028e-18)
(3.49843 3.96222 -2.16477e-18)
(3.44753 3.99965 2.23173e-18)
(3.37324 4.02749 -2.02623e-18)
(3.27545 4.03436 -6.33844e-18)
(3.43673 3.64436 0)
(3.55973 3.96843 5.98112e-19)
(3.55749 3.73448 -1.52544e-18)
(3.52291 3.68241 2.00534e-18)
(3.49538 3.62815 0)
(3.46852 3.60337 -2.8476e-18)
(3.4312 3.60116 2.76291e-18)
(3.37962 3.62 -3.67601e-20)
(3.31024 3.65563 -4.96728e-18)
(3.21754 3.70461 -2.39811e-18)
(3.09836 3.76026 -1.68041e-19)
(2.95239 3.8083 4.95171e-18)
(3.22652 3.74618 0)
(3.39549 4.01617 -1.38174e-18)
(3.40313 3.61308 -2.42471e-18)
(3.38031 3.48812 -2.03736e-18)
(3.34995 3.38 4.33017e-18)
(3.31177 3.31273 0)
(3.25396 3.2787 0)
(3.17331 3.27541 0)
(3.0677 3.30032 0)
(2.93249 3.35286 2.61103e-18)
(2.76607 3.42879 -2.77577e-18)
(2.56678 3.51318 2.76354e-18)
(2.89852 3.82959 0)
(3.09095 4.05463 1.26051e-18)
(3.1443 3.49375 -4.32158e-19)
(3.17377 3.26882 3.02851e-18)
(3.15596 3.10826 2.98311e-18)
(3.11163 3.00145 -4.30818e-18)
(3.03477 2.93821 0)
(2.92462 2.91261 -2.10372e-19)
(2.78216 2.92301 -9.88036e-18)
(2.60189 2.9719 0)
(2.38306 3.05761 6.44394e-18)
(2.1206 3.16628 -3.32333e-18)
(2.42416 3.89802 0)
(2.78827 3.84273 2.08354e-18)
(2.84421 3.28778 6.48478e-18)
(2.91775 3.00534 -6.01865e-18)
(2.92729 2.81935 -8.25235e-18)
(2.88437 2.68652 1.20736e-17)
(2.79117 2.60235 -2.6865e-19)
(2.65166 2.55886 -4.54341e-18)
(2.47223 2.55478 3.28384e-18)
(2.24312 2.59484 -7.40979e-18)
(1.9633 2.67711 -1.05131e-17)
(1.62045 2.79076 1.15321e-17)
(1.29088 3.89812 -1.73265e-18)
(2.16374 3.83658 -1.11474e-17)
(2.52412 3.07509 2.27292e-18)
(2.66579 2.7421 0)
(2.69601 2.53467 0)
(2.65276 2.38663 4.65688e-19)
(2.54454 2.29037 1.54319e-17)
(2.37451 2.23437 8.84718e-18)
(2.15586 2.21658 0)
(1.86548 2.24309 7.77197e-18)
(1.50102 2.31026 0)
(1.04452 2.4141 5.3157e-19)
(5.18951 4.13232 3.05929e-18)
(5.3183 3.81636 -1.60401e-18)
(5.37857 3.46576 2.59974e-19)
(5.36487 3.09588 -4.63841e-19)
(5.27326 2.7201 -3.56446e-19)
(5.10119 2.34953 0)
(4.84488 1.99476 0)
(4.50539 1.66871 2.10362e-18)
(4.07867 1.37594 -2.52872e-18)
(3.52901 1.08936 0)
(2.9687 0.750237 0)
(2.67454 0.0433535 -1.28221e-18)
(4.31957 4.51142 1.11712e-20)
(4.45355 4.2548 0)
(4.54145 3.96825 -7.59927e-19)
(4.58292 3.66475 3.341e-19)
(4.57558 3.35557 3.37579e-19)
(4.51905 3.0537 3.31485e-18)
(4.41232 2.77027 -5.87403e-18)
(4.25442 2.51763 1.14371e-18)
(4.0402 2.30817 0)
(3.68493 2.13917 0)
(3.32165 2.02657 0)
(3.27951 1.73457 1.44497e-18)
(4.24784 4.23262 6.62163e-19)
(4.29784 4.01859 -1.66851e-18)
(4.31752 3.7786 5.70696e-19)
(4.30767 3.52422 1.79214e-18)
(4.26956 3.26898 -1.84877e-18)
(4.20314 3.02894 0)
(4.10672 2.81837 0)
(3.97913 2.65251 -9.20293e-20)
(3.82164 2.54473 1.35599e-18)
(3.58807 2.49365 0)
(3.32427 2.49911 0)
(3.36148 2.44691 -9.52012e-19)
(3.97025 4.22736 9.39497e-20)
(3.97676 4.04343 1.99953e-18)
(3.96289 3.82837 1.78514e-18)
(3.93094 3.59388 -1.78934e-18)
(3.88402 3.35502 0)
(3.82525 3.12915 1.30151e-18)
(3.75667 2.93477 0)
(3.68085 2.78991 2.5692e-18)
(3.59949 2.7117 -1.01795e-18)
(3.496 2.69673 0)
(3.31872 2.77939 -6.2279e-19)
(3.51078 2.96337 1.11893e-18)
(3.73912 4.17878 -1.455e-18)
(3.70165 4.02565 0)
(3.65312 3.83545 0)
(3.59928 3.61753 0)
(3.54559 3.38618 0)
(3.4976 3.16019 -2.53162e-18)
(3.45984 2.96064 -5.95408e-20)
(3.4345 2.80804 -1.31855e-18)
(3.42454 2.73613 0)
(3.42223 2.74596 -1.21398e-18)
(3.33369 2.87411 7.37462e-19)
(3.65177 3.16033 -3.20556e-19)
(3.47242 4.11767 -2.96754e-20)
(3.39513 3.99825 -4.16845e-18)
(3.31787 3.8335 2.31417e-18)
(3.24893 3.63009 1.88079e-19)
(3.19648 3.40057 2.25437e-19)
(3.1671 3.16427 4.03975e-18)
(3.16565 2.94476 4.81613e-21)
(3.19461 2.7681 -4.70936e-18)
(3.25471 2.66682 -1.91478e-18)
(3.34185 2.67103 1.11362e-18)
(3.38313 2.82007 -1.61909e-18)
(3.78356 3.19348 -8.69671e-19)
(3.16115 4.00399 6.61019e-18)
(3.04509 3.92269 2.43649e-18)
(2.94227 3.78665 0)
(2.86332 3.59977 0)
(2.81844 3.37136 2.19086e-19)
(2.81456 3.12043 -2.82753e-18)
(2.85522 2.87277 4.72707e-18)
(2.94222 2.65838 -5.51565e-20)
(3.07607 2.51475 1.70783e-18)
(3.25732 2.48295 0)
(3.41513 2.61951 -2.3521e-19)
(3.88655 3.02816 -9.87603e-20)
(2.78871 3.82392 -2.48515e-18)
(2.63206 3.78369 -2.59185e-18)
(2.5061 3.67928 2.94745e-18)
(2.42266 3.5124 -3.07898e-18)
(2.39288 3.28773 -1.97493e-19)
(2.42329 3.0236 6.33166e-18)
(2.5135 2.74646 -3.09427e-18)
(2.66316 2.48871 1.74211e-18)
(2.87156 2.29175 0)
(3.14633 2.20587 1.13783e-18)
(3.42431 2.3107 8.33295e-19)
(3.9558 2.70761 -1.32442e-18)
(2.3454 3.57204 3.08736e-18)
(2.14288 3.57046 -3.02489e-18)
(1.99613 3.49701 -3.18704e-18)
(1.91556 3.35344 -7.02683e-18)
(1.91097 3.13718 6.86968e-18)
(1.9868 2.86439 -6.68413e-18)
(2.13488 2.56253 0)
(2.34998 2.26232 -1.68651e-18)
(2.63034 2.00604 0)
(2.99451 1.84965 0)
(3.3826 1.88338 0)
(3.97035 2.1929 7.0411e-19)
(1.82735 3.25601 3.36023e-18)
(1.57031 3.28244 -7.66695e-18)
(1.4065 3.23235 8.03474e-18)
(1.34022 3.11266 7.86619e-18)
(1.3741 2.91161 3.78648e-18)
(1.51018 2.63807 0)
(1.72573 2.32154 0)
(2.00655 1.98764 3.71756e-18)
(2.34915 1.67301 0)
(2.78813 1.43266 -1.15557e-18)
(3.26413 1.3556 8.29174e-19)
(3.89651 1.44323 -1.99916e-18)
(1.23442 2.8927 -8.43094e-18)
(0.915665 2.93379 8.36724e-18)
(0.748297 2.89118 -8.71041e-18)
(0.713113 2.79209 -2.15409e-17)
(0.800467 2.61435 -9.13634e-20)
(1.01556 2.34846 1.36139e-19)
(1.30605 2.031 -4.00906e-18)
(1.64883 1.67871 -3.75064e-18)
(2.03691 1.31539 0)
(2.51761 0.989099 3.26469e-18)
(3.00336 0.741768 9.85441e-19)
(3.67874 0.574922 -3.06607e-18)
(0.552042 2.5161 -4.3561e-19)
(0.20521 2.55652 0)
(0.0795308 2.50825 0)
(0.0885643 2.42714 3.50108e-18)
(0.253508 2.26076 1.16481e-17)
(0.555865 2.00977 -4.12195e-18)
(0.914987 1.70671 1.3099e-20)
(1.30462 1.35645 -1.89243e-18)
(1.7153 0.964997 -1.851e-18)
(2.18701 0.567797 -2.01989e-18)
(2.66064 0.119781 0)
(3.40735 -0.904233 2.22708e-18)
(2.38522 0.178849 1.80626e-20)
(2.08007 -0.425426 0)
(2.25234 -1.64399 -2.6795e-19)
(3.20454 -2.29992 0)
(3.72821 -2.57626 -8.45991e-19)
(4.22474 -2.9553 6.90576e-19)
(4.52859 -3.31997 0)
(4.72176 -3.72007 2.99431e-18)
(4.78078 -4.09843 -5.09499e-18)
(4.74203 -4.44954 3.66665e-18)
(4.60855 -4.75453 -4.32578e-20)
(4.40239 -5.00535 -7.90526e-20)
(3.20253 -0.779925 -2.95942e-19)
(3.51799 -1.69752 -2.34307e-19)
(4.00643 -2.3243 4.36297e-19)
(4.23253 -2.57808 0)
(4.48641 -2.67654 -6.24e-19)
(4.7068 -2.84465 5.61932e-19)
(4.87167 -3.03765 0)
(4.98038 -3.26207 3.05045e-19)
(5.01884 -3.49191 -4.57123e-19)
(4.98815 -3.72355 2.1538e-19)
(4.8906 -3.94406 -5.84981e-19)
(4.73047 -4.1444 -1.29917e-18)
(3.15167 -1.52188 -9.71878e-20)
(3.61121 -2.42103 0)
(3.9505 -2.85921 -5.82451e-19)
(4.14863 -3.01072 0)
(4.32808 -3.15746 0)
(4.47115 -3.31555 -3.63069e-19)
(4.57666 -3.4704 1.93544e-18)
(4.63999 -3.62742 -1.13209e-18)
(4.65642 -3.78033 2.16769e-19)
(4.6226 -3.92564 0)
(4.539 -4.05603 6.77436e-19)
(4.40788 -4.1642 -5.28297e-19)
(3.19955 -2.4952 1.52876e-19)
(3.70502 -2.99998 3.21063e-19)
(3.90203 -3.22491 5.27265e-19)
(4.0907 -3.30499 1.11912e-18)
(4.24644 -3.3898 -1.04739e-18)
(4.372 -3.47351 -7.18759e-19)
(4.46587 -3.55897 0)
(4.52597 -3.64739 0)
(4.54901 -3.73445 7.13475e-19)
(4.53251 -3.816 0)
(4.47303 -3.88555 2.58098e-19)
(4.37048 -3.93566 4.58578e-19)
(3.34125 -3.01919 1.69436e-19)
(3.81131 -3.33555 -1.97273e-19)
(3.90081 -3.45856 -6.64189e-19)
(4.03922 -3.48666 0)
(4.14624 -3.5267 0)
(4.23793 -3.56987 1.12516e-18)
(4.31115 -3.61514 0)
(4.36522 -3.66085 -1.55568e-18)
(4.39207 -3.70082 -6.25072e-19)
(4.39127 -3.73534 1.41663e-18)
(4.35625 -3.75448 -2.19575e-18)
(4.28556 -3.7522 1.49172e-18)
(3.41974 -3.39676 -1.37425e-19)
(3.8744 -3.56108 -2.61136e-19)
(3.86873 -3.58927 5.59689e-19)
(3.95348 -3.58147 1.10472e-19)
(4.01013 -3.58842 1.28761e-18)
(4.06703 -3.59938 -2.31331e-18)
(4.12009 -3.60963 2.06809e-18)
(4.16897 -3.61692 1.52345e-19)
(4.20257 -3.6193 0)
(4.22188 -3.61035 0)
(4.21791 -3.5802 3.78633e-18)
(4.1835 -3.52942 1.26433e-19)
(3.54683 -3.48365 -9.50822e-20)
(3.91628 -3.59812 -5.66695e-19)
(3.81006 -3.61054 0)
(3.83309 -3.58984 -1.43306e-18)
(3.83684 -3.57362 1.62839e-18)
(3.8553 -3.56079 4.10007e-18)
(3.88283 -3.54378 2.60743e-18)
(3.9188 -3.51944 3.27915e-19)
(3.95692 -3.48467 -4.46839e-18)
(3.99289 -3.43272 2.09577e-18)
(4.0191 -3.35856 2.39469e-18)
(4.02459 -3.26212 1.5472e-19)
(3.64304 -3.45075 4.18431e-20)
(3.97049 -3.56273 5.99428e-19)
(3.73587 -3.55553 0)
(3.68264 -3.51897 -2.00971e-18)
(3.62706 -3.48901 -1.60935e-18)
(3.6014 -3.45913 1.95503e-19)
(3.59832 -3.41885 -5.40806e-18)
(3.61599 -3.36489 1.46044e-19)
(3.65022 -3.29389 -1.59155e-19)
(3.69751 -3.20068 2.52643e-18)
(3.75128 -3.08226 -2.22578e-18)
(3.79736 -2.93866 6.30662e-20)
(3.74508 -3.24039 -7.22856e-19)
(4.01832 -3.39816 4.0621e-19)
(3.61474 -3.40049 -3.5303e-18)
(3.48876 -3.37492 2.04338e-18)
(3.37944 -3.34181 0)
(3.31133 -3.30047 0)
(3.27648 -3.23968 3.36478e-18)
(3.27213 -3.15675 6.03533e-18)
(3.29577 -3.04992 -2.83906e-18)
(3.34666 -2.9149 -2.60915e-18)
(3.42054 -2.75027 -2.6144e-18)
(3.50263 -2.55465 0)
(3.82962 -2.9137 1.76862e-20)
(4.05734 -3.09322 1.88819e-18)
(3.49543 -3.14082 5.36546e-18)
(3.26995 -3.16721 0)
(3.1085 -3.14634 5.07069e-18)
(3.00107 -3.09879 0)
(2.9372 -3.01918 1.31556e-19)
(2.91078 -2.90712 -3.30852e-18)
(2.92006 -2.76411 3.43003e-18)
(2.96741 -2.58502 0)
(3.05103 -2.36927 0)
(3.15733 -2.11219 -6.66361e-18)
(3.89533 -2.43912 -2.16983e-18)
(3.84217 -2.79054 2.0722e-18)
(3.2903 -2.84062 4.24914e-19)
(3.00677 -2.91025 -6.74497e-18)
(2.82056 -2.91638 -2.62297e-18)
(2.68735 -2.8704 -2.46099e-18)
(2.60283 -2.77485 -4.45349e-18)
(2.55874 -2.63397 -1.19828e-17)
(2.55364 -2.45482 -3.30309e-18)
(2.59216 -2.22801 -7.4457e-18)
(2.67236 -1.95275 7.47222e-18)
(2.78389 -1.61756 7.28527e-18)
(3.89836 -1.30707 3.25698e-18)
(3.83306 -2.17044 -1.28793e-18)
(3.07701 -2.52185 3.43565e-19)
(2.74366 -2.65808 6.43391e-18)
(2.53656 -2.68437 0)
(2.38832 -2.63808 -5.95935e-18)
(2.29201 -2.52786 4.89763e-18)
(2.23565 -2.35695 3.78783e-18)
(2.21702 -2.13926 -1.34568e-17)
(2.24196 -1.85253 7.81593e-18)
(2.3071 -1.4946 -7.50272e-18)
(2.40895 -1.04888 0)
(4.13639 -5.19253 -1.46207e-18)
(3.81942 -5.32132 3.50978e-18)
(3.46857 -5.38111 -1.53876e-18)
(3.09825 -5.36718 -1.62905e-19)
(2.72199 -5.27543 -3.06632e-19)
(2.35146 -5.10304 3.33588e-19)
(1.99625 -4.84652 1.11348e-20)
(1.67018 -4.50684 -6.70729e-19)
(1.37719 -4.07962 -2.53279e-18)
(1.09038 -3.52972 0)
(0.751533 -2.96891 0)
(0.0434241 -2.67431 -1.28152e-18)
(4.51354 -4.31825 -2.73081e-19)
(4.25645 -4.45233 7.48025e-19)
(3.96967 -4.54039 -7.59961e-19)
(3.66601 -4.58208 0)
(3.35676 -4.57498 1.66256e-18)
(3.0549 -4.51871 0)
(2.77149 -4.41229 1.85717e-18)
(2.51891 -4.25467 3.88601e-18)
(2.30942 -4.04062 -3.35695e-18)
(2.14038 -3.68555 0)
(2.02774 -3.32219 0)
(1.73597 -3.27992 8.27403e-21)
(4.23271 -4.24462 3.94425e-19)
(4.01846 -4.295 -2.7721e-19)
(3.77838 -4.31513 5.73204e-19)
(3.52408 -4.30579 0)
(3.26904 -4.2682 -9.11138e-19)
(3.02926 -4.20224 2.56483e-18)
(2.81896 -4.10623 -3.65682e-18)
(2.65337 -3.97896 -4.9007e-18)
(2.54583 -3.82167 3.89788e-18)
(2.4951 -3.58824 0)
(2.50077 -3.32453 8.20573e-19)
(2.44872 -3.3614 3.19833e-19)
(4.22519 -3.96478 5.21682e-19)
(4.04111 -3.97197 -1.44177e-18)
(3.82612 -3.95895 1.78448e-18)
(3.59196 -3.92786 -1.78886e-18)
(3.35358 -3.88177 0)
(3.12829 -3.82374 1.29931e-18)
(2.9345 -3.75577 1.25655e-18)
(2.79019 -3.68041 8.45107e-19)
(2.71244 -3.59933 -2.00284e-18)
(2.69792 -3.49605 0)
(2.78096 -3.31892 -5.0445e-19)
(2.96544 -3.51075 9.40071e-19)
(4.17376 -3.73127 1.7271e-18)
(4.0205 -3.695 -8.88842e-19)
(3.83057 -3.64778 0)
(3.61326 -3.59528 0)
(3.38276 -3.54278 1.23051e-18)
(3.15776 -3.4958 -1.18376e-18)
(2.95915 -3.4588 -1.59319e-19)
(2.80757 -3.43402 0)
(2.7364 -3.4244 -8.50241e-19)
(2.74696 -3.42249 1.21261e-18)
(2.87571 -3.33397 -1.56469e-18)
(3.16257 -3.65155 -4.36273e-19)
(4.10957 -3.46248 -3.88929e-18)
(3.98999 -3.38704 1.97115e-18)
(3.82571 -3.31176 4.63002e-18)
(3.62322 -3.24461 1.85821e-19)
(3.39501 -3.1937 -6.2802e-18)
(3.16014 -3.16544 -2.83187e-18)
(2.94206 -3.16478 -1.53103e-19)
(2.7667 -3.19422 0)
(2.66654 -3.25464 0)
(2.67166 -3.34208 -1.11238e-18)
(2.8216 -3.38343 -9.14346e-19)
(3.19565 -3.78352 3.94315e-19)
(3.99317 -3.15016 2.32244e-18)
(3.9117 -3.03678 -4.70566e-18)
(3.77619 -2.93656 -2.35556e-18)
(3.59052 -2.85982 -1.91558e-20)
(3.36381 -2.8166 2.80079e-18)
(3.11482 -2.81381 2.89273e-18)
(2.86909 -2.85506 1.64167e-18)
(2.65641 -2.94238 1.62706e-18)
(2.51415 -3.0763 -1.77736e-18)
(2.48349 -3.25761 0)
(2.62092 -3.41557 1.53347e-18)
(3.03026 -3.8862 -5.51581e-19)
(3.81157 -2.77842 0)
(3.77092 -2.62541 2.56937e-18)
(3.66709 -2.50256 0)
(3.50162 -2.42147 -2.2959e-19)
(3.27896 -2.39318 -1.95027e-19)
(3.01711 -2.42428 6.27808e-18)
(2.74223 -2.51461 -6.4024e-18)
(2.48644 -2.66405 0)
(2.29101 -2.87225 -1.88935e-18)
(2.20627 -3.14681 1.13535e-18)
(2.31197 -3.42473 -2.74987e-18)
(2.70944 -3.95592 1.75994e-18)
(3.55977 -2.33819 3.0622e-18)
(3.55764 -2.1403 -2.99546e-18)
(3.48472 -1.99699 -3.35691e-18)
(3.3426 -1.91853 3.45547e-18)
(3.12845 -1.91475 3.50386e-18)
(2.85811 -1.99035 -1.01239e-17)
(2.55857 -2.13765 3.30679e-18)
(2.26032 -2.35182 0)
(2.00552 -2.63136 1.76826e-18)
(1.85009 -2.99496 0)
(1.88464 -3.38297 2.90434e-18)
(2.19486 -3.97015 -3.15816e-18)
(3.24543 -1.82557 0)
(3.27143 -1.57418 -7.58839e-18)
(3.22188 -1.41369 -4.16828e-18)
(3.10354 -1.34885 -7.86628e-18)
(2.90455 -1.38237 3.73252e-18)
(2.6333 -1.51682 3.6734e-18)
(2.31886 -1.73032 0)
(1.98661 -2.00923 0)
(1.67314 -2.35044 0)
(1.43353 -2.78841 0)
(1.3569 -3.26399 -7.92828e-19)
(1.44522 -3.89624 -5.47238e-20)
(2.88445 -1.23982 4.22428e-18)
(2.92539 -0.927512 4.1982e-18)
(2.88349 -0.762201 1.75883e-17)
(2.78565 -0.727378 4.20153e-18)
(2.61001 -0.813008 1.71508e-17)
(2.34613 -1.02484 -4.08552e-18)
(2.03039 -1.31197 -3.9654e-18)
(1.67923 -1.65202 0)
(1.31662 -2.03813 -3.76537e-18)
(0.990567 -2.51748 -2.12359e-18)
(0.743272 -3.00274 -1.77035e-18)
(0.576425 -3.6784 -1.92684e-25)
(2.50942 -0.565381 0)
(2.55047 -0.223728 0)
(2.50268 -0.0976892 -1.69868e-17)
(2.42284 -0.105888 -1.1104e-17)
(2.25889 -0.267118 -3.954e-18)
(2.01008 -0.565238 0)
(1.70848 -0.920646 4.03639e-18)
(1.35871 -1.30746 0)
(0.967455 -1.71597 4.09654e-20)
(0.570056 -2.18619 2.01113e-18)
(0.121454 -2.65916 6.89426e-19)
(-0.903145 -3.40508 4.49043e-18)
(0.180097 -2.38705 3.30076e-19)
(-0.431705 -2.07905 4.1784e-20)
(-1.65327 -2.26207 -2.0871e-20)
(-2.30151 -3.21267 -3.171e-19)
(-2.58004 -3.73674 0)
(-2.95924 -4.23359 -7.05326e-20)
(-3.32444 -4.53817 0)
(-3.72384 -4.73136 -2.93427e-19)
(-4.10276 -4.78977 3.14655e-18)
(-4.45495 -4.74966 -2.17138e-18)
(-4.75965 -4.61655 -3.52341e-18)
(-5.01014 -4.40941 2.19145e-18)
(-0.7842 -3.2067 2.74679e-19)
(-1.70301 -3.52001 -4.41476e-19)
(-2.32765 -4.00997 3.42036e-19)
(-2.57983 -4.2371 1.88098e-19)
(-2.67947 -4.49255 -6.21235e-19)
(-2.84774 -4.71356 3.24257e-19)
(-3.04146 -4.87907 -4.24799e-19)
(-3.26619 -4.98813 -8.55207e-20)
(-3.49648 -5.02702 1.12165e-18)
(-3.72873 -4.99634 3.45241e-21)
(-3.94963 -4.89849 8.64215e-19)
(-4.15004 -4.73802 7.0684e-19)
(-1.52833 -3.15427 -1.94906e-19)
(-2.42778 -3.61236 0)
(-2.86457 -3.95303 0)
(-3.015 -4.15244 -4.69197e-19)
(-3.16212 -4.33337 0)
(-3.32037 -4.47746 -4.93373e-19)
(-3.47563 -4.5839 3.94654e-19)
(-3.6328 -4.64808 7.26226e-19)
(-3.78604 -4.66514 -5.42895e-19)
(-3.93166 -4.63158 -2.87475e-19)
(-4.06213 -4.54811 -8.54537e-19)
(-4.17016 -4.41688 8.8282e-19)
(-2.50381 -3.20036 -3.04587e-19)
(-3.00793 -3.70577 -3.19907e-19)
(-3.23153 -3.90422 6.3269e-19)
(-3.31127 -4.09428 4.94869e-19)
(-3.39631 -4.25152 0)
(-3.48019 -4.37838 -2.00729e-18)
(-3.56583 -4.4734 1.49689e-18)
(-3.65443 -4.53448 0)
(-3.74157 -4.5583 9.34579e-19)
(-3.82313 -4.54226 -1.53495e-18)
(-3.89248 -4.4831 1.19892e-18)
(-3.94222 -4.38064 2.47806e-19)
(-3.02946 -3.3418 2.37661e-19)
(-3.3451 -3.81224 5.86488e-19)
(-3.46697 -3.90315 1.08034e-19)
(-3.49474 -4.04291 0)
(-3.53495 -4.15125 -1.17243e-18)
(-3.57818 -4.24432 1.88641e-18)
(-3.62357 -4.3188 0)
(-3.66916 -4.37426 -8.56959e-19)
(-3.70895 -4.40213 -8.00183e-19)
(-3.74313 -4.40213 1.39511e-18)
(-3.76236 -4.36743 0)
(-3.75924 -4.2971 -1.34432e-18)
(-3.40816 -3.42057 1.60263e-19)
(-3.57076 -3.8759 1.33424e-19)
(-3.59882 -3.87094 -5.56488e-19)
(-3.5909 -3.95704 -2.86103e-18)
(-3.59799 -4.01484 -3.21005e-20)
(-3.60904 -4.0729 2.39907e-18)
(-3.61942 -4.12709 0)
(-3.6267 -4.17733 2.77926e-18)
(-3.62883 -4.21248 -1.73433e-18)
(-3.61948 -4.23304 1.7623e-18)
(-3.58871 -4.22997 7.46102e-20)
(-3.53667 -4.19621 -1.27594e-19)
(-3.49659 -3.54744 -3.53159e-19)
(-3.62177 -3.91161 -3.5294e-19)
(-3.6231 -3.81282 0)
(-3.60028 -3.83623 2.99831e-18)
(-3.58404 -3.84096 -4.59436e-18)
(-3.57141 -3.86058 -1.15511e-19)
(-3.55438 -3.88934 -5.01855e-18)
(-3.52999 -3.92663 1.6626e-19)
(-3.49475 -3.9663 -2.155e-18)
(-3.44222 -4.00367 -2.21944e-18)
(-3.36693 -4.03126 2.38692e-18)
(-3.26886 -4.03777 -2.08054e-18)
(-3.46312 -3.64263 2.09356e-20)
(-3.55671 -3.97465 -4.24525e-19)
(-3.56495 -3.73607 0)
(-3.52984 -3.68447 2.00066e-18)
(-3.50005 -3.63011 1.46727e-18)
(-3.47029 -3.60558 1.313e-18)
(-3.42999 -3.6036 -1.6105e-19)
(-3.3757 -3.62252 3.67608e-20)
(-3.30407 -3.65812 -2.58379e-18)
(-3.20975 -3.70697 -2.63293e-19)
(-3.08978 -3.76236 9.90372e-20)
(-2.94393 -3.81005 0)
(-3.25206 -3.74516 3.90542e-19)
(-3.42119 -4.01586 0)
(-3.41323 -3.61475 0)
(-3.38646 -3.48989 -2.0329e-18)
(-3.3532 -3.38119 1.88523e-18)
(-3.31183 -3.31398 -3.7389e-18)
(-3.25077 -3.28004 0)
(-3.1672 -3.2767 2.91797e-18)
(-3.05931 -3.3015 -1.70148e-19)
(-2.92269 -3.35387 2.60436e-18)
(-2.75589 -3.42954 -2.82558e-18)
(-2.55737 -3.51363 5.78227e-18)
(-2.92315 -3.82798 1.30661e-18)
(-3.10104 -4.05576 -6.5923e-19)
(-3.15265 -3.49339 -2.88752e-18)
(-3.17891 -3.26924 -5.65164e-18)
(-3.15773 -3.1085 0)
(-3.10992 -3.00186 3.86228e-18)
(-3.0297 -2.93876 -7.42097e-18)
(-2.91657 -2.91312 3.20743e-18)
(-2.77199 -2.92334 3.42536e-18)
(-2.59068 -2.97198 0)
(-2.37207 -3.05734 -3.45443e-18)
(-2.11125 -3.16574 -6.22436e-18)
(-2.44822 -3.89205 -2.1288e-18)
(-2.8008 -3.83801 9.06296e-19)
(-2.85257 -3.2855 3.01168e-18)
(-2.92203 -3.00392 2.86632e-18)
(-2.92764 -2.81838 9.55263e-20)
(-2.88108 -2.68601 -7.3279e-18)
(-2.78451 -2.60232 8.38594e-18)
(-2.64204 -2.55897 1.56815e-17)
(-2.4608 -2.55469 -1.07681e-17)
(-2.23114 -2.59433 -7.4403e-18)
(-1.95223 -2.67607 6.91933e-18)
(-1.61206 -2.78945 0)
(-1.30958 -3.89449 5.1065e-18)
(-2.18024 -3.82905 1.77156e-18)
(-2.53428 -3.06894 1.92166e-18)
(-2.67007 -2.73799 6.97639e-18)
(-2.6955 -2.53183 0)
(-2.64838 -2.38477 5.48242e-18)
(-2.53672 -2.28955 -1.06151e-17)
(-2.36364 -2.2341 -4.33228e-18)
(-2.14333 -2.2163 -4.40757e-18)
(-1.85291 -2.24233 7.79661e-18)
(-1.49023 -2.30882 4.17592e-18)
(-1.03772 -2.41228 1.17058e-17)
(-5.19767 -4.14257 5.7607e-19)
(-5.32578 -3.82496 2.22688e-19)
(-5.38555 -3.473 5.19425e-19)
(-5.37102 -3.10197 -1.01801e-18)
(-5.27879 -2.72496 5.96093e-20)
(-5.10584 -2.35368 0)
(-4.84878 -1.99786 -1.44506e-18)
(-4.50855 -1.67122 1.17492e-18)
(-4.08098 -1.37774 0)
(-3.5308 -1.09049 6.95578e-20)
(-2.96951 -0.751225 0)
(-2.67471 -0.0434477 0)
(-4.32396 -4.5205 -1.1728e-18)
(-4.45773 -4.26281 1.53661e-18)
(-4.54544 -3.97529 1.52947e-18)
(-4.58663 -3.67088 -5.49731e-19)
(-4.57901 -3.36084 0)
(-4.5222 -3.05827 0)
(-4.41524 -2.77422 2.1161e-18)
(-4.25711 -2.5211 -2.5197e-18)
(-4.04262 -2.31118 0)
(-3.68711 -2.14182 1.04768e-18)
(-3.32289 -2.02899 -6.69667e-20)
(-3.27999 -1.73724 -2.06238e-18)
(-4.25031 -4.24133 5.923e-19)
(-4.30021 -4.02649 -1.13021e-18)
(-4.31985 -3.78564 0)
(-4.30996 -3.53046 -1.68098e-18)
(-4.27183 -3.27448 -2.13518e-18)
(-4.20535 -3.03379 4.83533e-18)
(-4.10884 -2.82267 -4.50022e-18)
(-3.98111 -2.65638 0)
(-3.82341 -2.54831 0)
(-3.5896 -2.49709 0)
(-3.32549 -2.50258 -8.0456e-19)
(-3.36169 -2.45061 3.13028e-19)
(-3.97074 -4.23519 -5.17215e-19)
(-3.97721 -4.05059 -2.27511e-19)
(-3.96341 -3.83482 0)
(-3.93155 -3.59967 -2.06832e-19)
(-3.88475 -3.3602 0)
(-3.82609 -3.1338 0)
(-3.75758 -2.939 1.31008e-18)
(-3.68178 -2.79381 -1.6925e-18)
(-3.60039 -2.71543 2.10138e-18)
(-3.49692 -2.70059 0)
(-3.31938 -2.78348 -6.22582e-19)
(-3.51086 -2.96798 -1.11918e-18)
(-3.73733 -4.18528 3.49969e-18)
(-3.69992 -4.0316 -8.84891e-19)
(-3.6516 -3.84085 2.02462e-18)
(-3.59806 -3.6224 1.15875e-18)
(-3.54471 -3.39061 -3.44381e-18)
(-3.49702 -3.16427 0)
(-3.4595 -2.96445 -1.47395e-18)
(-3.43435 -2.81169 0)
(-3.4245 -2.73973 0)
(-3.42229 -2.74985 1.2164e-18)
(-3.33395 -2.87845 2.27338e-20)
(-3.65139 -3.16524 1.18933e-18)
(-3.46821 -4.12249 -1.94001e-18)
(-3.3912 -4.00264 -2.09247e-19)
(-3.31445 -3.83749 0)
(-3.24604 -3.63375 0)
(-3.19415 -3.40397 -4.06949e-18)
(-3.16525 -3.1675 2.61315e-18)
(-3.16421 -2.94794 2.87994e-18)
(-3.19349 -2.77129 1.58306e-18)
(-3.25385 -2.67009 -3.70202e-18)
(-3.34129 -2.67451 -1.11141e-18)
(-3.38292 -2.824 0)
(-3.78299 -3.19815 1.34511e-18)
(-3.15484 -4.00703 -4.64261e-18)
(-3.03942 -3.92547 2.01825e-18)
(-2.9374 -3.78919 2.59031e-18)
(-2.85924 -3.60212 2.19608e-19)
(-2.81508 -3.37364 -2.58143e-19)
(-2.81182 -3.12275 -3.01878e-18)
(-2.85297 -2.87522 -4.60317e-18)
(-2.94037 -2.66102 -1.68656e-18)
(-3.07459 -2.51759 1.70208e-18)
(-3.25621 -2.48609 0)
(-3.41452 -2.62313 2.56375e-18)
(-3.88567 -3.03226 -8.34189e-19)
(-2.78106 -3.82538 5.09325e-18)
(-2.62548 -3.78503 -2.78778e-18)
(-2.50058 -3.68058 -2.92145e-18)
(-2.41811 -3.51375 -5.8736e-18)
(-2.38913 -3.28915 5.85825e-18)
(-2.42016 -3.02515 -2.04024e-19)
(-2.51081 -2.74825 9.54761e-18)
(-2.66081 -2.49079 1.59297e-18)
(-2.86956 -2.29411 1.88954e-18)
(-3.14474 -2.20851 0)
(-3.4233 -2.31377 -1.73577e-18)
(-3.95478 -2.71089 -1.09607e-18)
(-2.33753 -3.57235 0)
(-2.13656 -3.57089 3.01266e-18)
(-1.99112 -3.49763 3.157e-18)
(-1.91154 -3.3543 -3.49236e-18)
(-1.90761 -3.1382 -2.15147e-19)
(-1.98383 -2.8656 -3.51526e-18)
(-2.13212 -2.56399 -3.31057e-18)
(-2.34735 -2.26403 0)
(-2.62793 -2.00797 -1.76896e-18)
(-2.99244 -1.85178 -1.14455e-18)
(-3.38114 -1.88574 4.70663e-18)
(-3.96915 -2.19506 -1.5046e-18)
(-1.82035 -3.25557 0)
(-1.56529 -3.2825 0)
(-1.40283 -3.2328 0)
(-1.33748 -3.11357 -1.2111e-17)
(-1.37178 -2.91284 7.47232e-18)
(-1.50789 -2.63947 7.36114e-18)
(-1.72323 -2.3231 0)
(-2.00385 -1.98929 -3.69245e-18)
(-2.34642 -1.67472 0)
(-2.78554 -1.43437 -2.23743e-18)
(-3.26208 -1.35715 -7.93177e-19)
(-3.89496 -1.44406 -2.00012e-18)
(-1.22902 -2.89161 0)
(-0.912446 -2.93354 0)
(-0.745949 -2.89138 8.99365e-18)
(-0.711655 -2.79313 1.26877e-17)
(-0.799273 -2.61597 2.88992e-19)
(-1.01402 -2.35032 4.2329e-18)
(-1.30389 -2.03298 -2.01918e-18)
(-1.64616 -1.68061 5.57676e-18)
(-2.03397 -1.31715 3.76741e-18)
(-2.51457 -0.990571 2.08878e-18)
(-3.00051 -0.742516 -1.77091e-18)
(-3.67654 -0.574741 -3.27135e-18)
(-0.548462 -2.5143 0)
(-0.20326 -2.55572 0)
(-0.0777965 -2.5079 -8.34738e-18)
(-0.0873978 -2.42776 3.60542e-18)
(-0.25229 -2.2623 -3.96197e-18)
(-0.554169 -2.01205 -4.09955e-18)
(-0.912695 -1.70928 4.02745e-18)
(-1.30191 -1.35873 0)
(-1.71219 -0.966958 -3.74608e-18)
(-2.18363 -0.569239 -1.97168e-18)
(-2.6573 -0.119879 2.27926e-18)
(-3.40539 0.907571 -4.32086e-18)
(-2.38347 -0.181693 2.50502e-19)
(-2.08121 0.414492 0)
(-2.23952 1.63091 0)
(-3.19433 2.3017 4.55937e-19)
(-3.72024 2.57566 -2.23482e-19)
(-4.21878 2.95599 0)
(-4.52403 3.31944 0)
(-4.71893 3.71991 -2.88656e-19)
(-4.77838 4.09876 5.92383e-20)
(-4.74068 4.45107 -1.46951e-18)
(-4.60842 4.75605 -3.54469e-18)
(-4.40279 5.00743 1.5136e-18)
(-3.19848 0.77103 -4.11935e-19)
(-3.51602 1.69079 0)
(-4.00469 2.32393 0)
(-4.23071 2.58132 -4.80505e-19)
(-4.48397 2.67904 9.29178e-19)
(-4.70406 2.84739 -1.45412e-18)
(-4.86891 3.03969 8.16297e-19)
(-4.97808 3.26422 5.45917e-19)
(-5.01724 3.49403 5.899e-19)
(-4.98716 3.72599 8.5327e-19)
(-4.89026 3.9466 0)
(-4.73088 4.14717 2.4192e-19)
(-3.15072 1.513 1.95135e-19)
(-3.61148 2.41555 0)
(-3.9504 2.85806 0)
(-4.14775 3.01229 -9.85666e-20)
(-4.32622 3.15873 9.90513e-20)
(-4.46894 3.31752 -7.68483e-19)
(-4.57428 3.47246 0)
(-4.63781 3.62992 -1.03959e-18)
(-4.65461 3.78327 1.19175e-18)
(-4.62128 3.92906 -1.85724e-19)
(-4.53827 4.05975 -6.77861e-19)
(-4.4078 4.16825 9.00771e-19)
(-3.19921 2.48439 -1.54459e-19)
(-3.70492 2.99411 3.2292e-19)
(-3.90087 3.22301 0)
(-4.08879 3.3051 4.98978e-19)
(-4.24392 3.39063 -4.50996e-19)
(-4.36922 3.47531 7.22586e-19)
(-4.46306 3.56141 0)
(-4.52342 3.65061 -7.78001e-19)
(-4.54687 3.73838 -1.66488e-18)
(-4.53087 3.82046 1.14315e-18)
(-4.47219 3.89053 1.21129e-18)
(-4.37051 3.94093 -2.58681e-18)
(-3.34097 3.00776 1.20455e-19)
(-3.8104 3.32978 -2.71595e-19)
(-3.8989 3.45633 6.67647e-19)
(-4.03659 3.48613 0)
(-4.14311 3.52724 -2.49162e-18)
(-4.23453 3.57163 2.14293e-18)
(-4.30764 3.61799 1.00642e-18)
(-4.36202 3.66484 6.77913e-19)
(-4.38954 3.70573 0)
(-4.3894 3.74085 0)
(-4.35522 3.7609 0)
(-4.2856 3.7589 -3.43689e-19)
(-3.41998 3.38465 2.77787e-19)
(-3.87292 3.55483 0)
(-3.86633 3.58634 -5.62673e-19)
(-3.95028 3.58044 1.50095e-18)
(-4.00644 3.58878 1.31229e-18)
(-4.063 3.60125 -2.22799e-18)
(-4.11589 3.61296 1.13787e-18)
(-4.16509 3.62153 -3.77407e-18)
(-4.19971 3.62465 -1.55295e-20)
(-4.21947 3.61697 -1.50933e-19)
(-4.21639 3.58796 7.62734e-20)
(-4.18328 3.53737 5.46956e-18)
(-3.54716 3.47136 -9.49405e-19)
(-3.91477 3.59041 9.21036e-19)
(-3.80773 3.60675 -1.75059e-18)
(-3.8295 3.58839 -1.4369e-18)
(-3.8327 3.57382 -2.89874e-18)
(-3.85066 3.56275 -1.55492e-18)
(-3.87787 3.54747 -2.42915e-18)
(-3.91388 3.52467 4.38747e-18)
(-3.95247 3.49121 0)
(-3.98916 3.44047 4.2033e-18)
(-4.01646 3.36712 -6.33992e-18)
(-4.0235 3.27077 2.30062e-18)
(-3.64389 3.4379 -5.00273e-19)
(-3.96873 3.55464 -1.00678e-18)
(-3.73354 3.55099 2.34926e-18)
(-3.67897 3.51701 0)
(-3.62268 3.48901 -1.88128e-18)
(-3.59632 3.46111 2.86528e-18)
(-3.59269 3.42274 -2.00463e-19)
(-3.6101 3.37048 -3.69035e-20)
(-3.64443 3.30091 -2.50141e-18)
(-3.69219 3.20881 -4.8249e-18)
(-3.74693 3.09101 2.28864e-18)
(-3.79467 2.94731 -2.53661e-18)
(-3.74633 3.22779 3.94915e-19)
(-4.01718 3.38986 0)
(-3.61284 3.39516 0)
(-3.48523 3.37245 0)
(-3.37507 3.3416 1.89955e-18)
(-3.30605 3.3024 0)
(-3.2704 3.24362 -1.45892e-19)
(-3.26545 3.16243 5.94191e-18)
(-3.28878 3.05697 1.04268e-19)
(-3.33973 2.92289 2.61901e-18)
(-3.41428 2.75862 -2.77731e-18)
(-3.49795 2.56266 8.56518e-18)
(-3.82993 2.90081 1.74369e-20)
(-4.05612 3.08371 3.56864e-18)
(-3.49463 3.1347 -1.35787e-18)
(-3.26714 3.16424 0)
(-3.1046 3.14594 0)
(-2.99602 3.10066 0)
(-2.93108 3.02309 0)
(-2.90375 2.91271 3.33336e-18)
(-2.91235 2.77096 -1.30002e-17)
(-2.95936 2.59259 -6.48333e-18)
(-3.04328 2.37697 6.46416e-18)
(-3.1509 2.11929 3.76398e-18)
(-3.89799 2.42778 -2.1642e-18)
(-3.84446 2.78191 -2.77991e-18)
(-3.29108 2.83444 -1.78526e-18)
(-3.00534 2.90705 0)
(-2.81767 2.9159 0)
(-2.68308 2.87227 5.07587e-18)
(-2.59724 2.77879 -8.67142e-18)
(-2.55201 2.63953 1.60119e-17)
(-2.54597 2.46154 1.10184e-17)
(-2.58388 2.23536 6.87675e-18)
(-2.6641 1.96009 -6.93723e-18)
(-2.77663 1.62399 5.27183e-19)
(-3.89916 1.29733 -1.73286e-18)
(-3.83736 2.16008 0)
(-3.0817 2.51375 3.5408e-18)
(-2.74458 2.65421 -1.03523e-17)
(-2.53541 2.6838 1.02254e-17)
(-2.38551 2.63998 4.65782e-19)
(-2.28763 2.53194 4.90958e-18)