/*--------------------------------*- C++ -*----------------------------------*\
| =========                 |                                                 |
| \\      /  F ield         | OpenFOAM: The Open Source CFD Toolbox           |
|  \\    /   O peration     | Version:  4.0                                   |
|   \\  /    A nd           | Web:      www.OpenFOAM.org                      |
|    \\/     M anipulation  |                                                 |
\*---------------------------------------------------------------------------*/
FoamFile
{
    version     2.0;
    format      ascii;
    class       volScalarField;
    location    "5";
    object      p;
}
// * * * * * * * * * * * * * * * * * * * * * * * * * * * * * * * * * * * * * //

dimensions      [0 2 -2 0 0 0 0];

internalField   nonuniform List<scalar> 
146404
(
71.2901
33.186
264.254
198.797
115.987
62.5725
22.2155
268.673
193.913
50.6917
22.5391
265.356
197.427
123.739
64.9454
27.6073
131.596
75.1886
30.6406
249.678
192.325
127.53
65.1036
22.8587
237.771
175.478
121.033
60.7588
17.3383
239.104
165.572
85.56
32.7444
6.17298
253.582
173.892
100.96
44.7136
2.11246
265.598
204.634
44.6405
2.76271
245.546
186.231
108.942
28.1803
5.40713
245.409
177.015
113.504
58.7198
20.7159
244.456
178.391
118.806
65.93
25.3208
257.19
193.808
131.688
72.148
29.8197
254.96
55.3095
16.3023
248.158
181.188
107.752
39.2795
3.76705
245.138
169.588
77.1672
22.9308
1.00311
249.993
163.269
68.5495
16.6045
-1.14164
271.933
176.729
87.5737
32.7692
-3.05445
290.934
200.216
34.2603
-1.61177
261.825
195.547
89.6013
14.9347
-0.563931
259.215
175.635
71.3844
19.1574
1.39881
256.151
191.723
106.928
49.6816
4.00949
259.983
193.809
126.927
48.0886
16.6792
267.245
217.013
59.1936
20.1367
202.564
130.227
68.0424
29.998
234.929
165.723
101.264
31.4905
6.5156
252.381
187.773
104.353
37.859
1.50989
275.284
216.62
105.442
38.4839
-0.514469
279.243
188.715
86.3702
29.8893
-1.60525
295.847
180.421
81.6248
8.71132
-4.21897
324.614
177.462
71.4351
24.8143
-2.89923
349.48
219.784
28.401
-1.66164
309.183
192.683
72.6801
23.5866
-1.54045
291.492
195.153
80.3175
27.3551
-1.64385
290.316
198.399
94.8593
31.9107
-1.73218
284.649
230.492
117.654
45.3788
0.797002
262.088
186.432
106.874
53.2282
5.03528
251.382
184.491
123.216
62.683
21.0984
201.366
137.243
79.615
31.4623
232.346
169.742
108.619
59.4594
19.3686
237.623
169.403
70.8326
17.9925
0.563523
258.394
181.046
86.7035
34.2229
-1.45897
313.077
203.224
85.4121
35.8808
-0.130144
358.467
206.897
83.5766
28.2874
5.19476
410.179
151.674
70.1234
19.0524
7.24543
489.208
124.289
71.5152
25.2934
4.61154
550.044
162.593
22.8163
4.08024
482.848
120.738
67.9925
25.7466
4.79945
381.76
128.621
64.0778
17.4609
5.04094
363.742
216.661
88.9149
26.2844
0.00010104
314.818
217.149
99.0613
37.041
-3.02689
257.292
180.942
83.9791
23.8223
-0.0558453
254.448
179.267
98.3309
35.0899
2.71091
255.355
192.369
128.658
66.6997
21.2532
248.959
189.783
120.344
61.7941
24.1688
238.058
184.053
93.79
29.6688
5.82463
248.977
163.523
62.1274
16.3653
1.02758
284.341
188.67
48.6167
15.8064
0.532573
361.603
147.696
60.0125
23.9041
6.77946
519.166
162.946
65.853
28.6515
5.12738
899.029
1105.04
27.9924
8.65986
1053.7
1110.26
1115.79
1001.49
1061.35
1109.64
1113.8
999.485
601.066
1033.12
1099.88
1109.67
1003.93
889.656
1081.63
21.5431
6.92421
570.026
22.1214
6.15171
369.311
187.744
76.5646
8.44562
-1.46633
276.263
184.594
70.8531
11.6652
-4.86551
262.242
205.04
109.48
44.6956
1.63799
263.012
198.04
123.331
57.9461
17.2309
270.34
208.912
141.189
71.2291
27.2117
258.016
197.053
112.279
52.5621
15.1818
257.657
196.372
105.195
37.1613
1.72886
278.975
181.814
80.6254
28.8295
-0.921523
331.41
157.41
60.4839
27.7563
6.20295
495.692
107.774
66.3606
28.8313
4.20545
1042.27
1111.73
1125.04
5.87575
1114.3
1123.05
1117.68
991.055
567.094
1122.21
1124.74
1114.35
1025.93
579.109
1120.09
1122.97
1114.75
1018.5
575.128
1107.64
1116.76
1108.51
1012.04
589.798
1067.78
1102.82
1105.64
982.961
559.591
968.675
1090.26
1105.36
1034.74
1.73192
510.124
102.626
66.963
21.388
6.52548
346.125
187.202
76.7526
23.5622
-2.49231
296.613
201.559
99.4362
35.7203
0.963803
280.911
217.745
125.954
55.1717
5.57698
282.064
217.637
136.577
63.0105
19.8144
250.134
179.542
118.617
45.6497
4.69154
270.111
197.968
105.012
45.7867
-0.918387
320.118
34.1592
-1.8676
413.914
187.233
75.9235
26.7918
4.61283
884.392
57.3906
30.1356
7.69459
1115.58
1125.41
1122.6
987.513
571.53
1130.57
1132.98
1123.65
1020.67
555.126
1136.94
1127.74
1117.9
1069.06
577.564
1139.74
1128.38
1102.8
1057.43
538.423
1123.92
1123.65
1109.49
1080.44
608.702
1104.73
1115.46
1107.81
994.64
646.514
1055.54
1098.32
1098.88
996.85
560.251
870.478
1075.01
1102.74
24.4017
8.35457
425.859
200.617
80.1776
30.2404
-0.0645169
330.834
281.713
31.6971
-0.197825
288.941
224.934
119.735
54.3752
3.31387
274.104
201.407
129.804
55.0802
20.9716
220.188
145.957
79.3424
31.6411
193.108
135.121
73.697
27.7999
232.26
170.242
92.53
29.0326
3.48602
249.117
164.893
71.6192
18.1772
-2.12702
296.55
176.975
78.7679
25.0777
-3.00936
443.992
134.629
71.1859
18.5489
3.3625
1048.9
1113.04
1122.63
1059.42
-4.23884
1124.15
1128.3
1120.1
1000.75
551.817
1137.78
1130.55
1119.49
1085.83
527.316
1156.87
1133.61
1097.52
911.088
529.762
1167.54
1131.97
1073.34
809.937
414.552
1143.62
1129.91
1085.65
855.165
527.003
1115.69
1118.15
1101.86
1065.18
489.262
1084.37
1102.62
1098.68
1003.5
534.461
963.359
1087.93
1100.67
950.278
573.997
450.442
154.254
68.4654
25.9386
6.20958
290.452
205.228
80.0879
18.328
-0.475531
265.287
187.285
94.5858
33.5906
4.52699
267.287
197.397
131.551
67.5988
23.1723
280.297
214.093
154.207
86.7555
34.7773
246.917
191.7
131.388
73.2399
26.6547
232.378
169.348
92.0805
28.9648
3.48273
250.517
164.5
70.0209
18.3447
-0.856552
294.251
180.315
76.2852
26.5761
-1.41002
474.503
102.86
64.4634
23.8074
4.72839
1057.86
1118.61
1120.12
1011.99
1124.66
1128.66
1120.6
1026.77
622.376
1141.17
1134.09
1118.34
1082.92
522.557
1160.74
1136.78
1079.95
816.635
474.226
1140.23
1130.55
1062.21
760.412
459.906
1157.43
1129.24
1072.66
807.528
470.836
1119.33
1119.52
1099.18
1071.59
518.451
1092.46
1106.12
1099.95
1028.59
525.306
979.358
1089.41
1102.89
1005.21
559.527
462.516
106.68
56.6739
26.9742
6.216
287.571
187.429
77.5314
12.4867
-5.86507
268.521
188.663
97.2553
34.6666
5.58737
267.118
198.497
131.993
68.5279
25.7448
277.593
213.546
149.576
84.3598
33.2165
193.103
131.431
71.3825
28.2511
242.358
178.678
109.663
51.8628
4.92186
262.615
181.905
92.5775
37.065
-0.14658
318.174
204.066
84.2366
23.0217
-0.985735
454.742
149.122
65.0012
24.0062
5.03816
1031.69
1111.11
1118.82
992.206
-2.07057
1116.87
1125.56
1116.84
1012.59
580.745
1132.22
1132.98
1119.81
1074.16
498.06
1148.95
1138.41
1100.32
930.253
520.059
1159.53
1133.4
1081.53
820.388
471.817
1146.1
1129.33
1088.99
893.764
550.854
1114.42
1122.12
1110.41
1082.12
470.349
1085.66
1106.87
1104.86
985.573
540.396
951.156
1093.48
1104.49
997.649
592.054
439.69
167.143
71.4287
27.9052
-0.405297
323.93
204.559
92.0018
32.5077
-1.82535
282.997
204.298
116.387
50.6924
4.04342
269.268
198.224
130.619
64.8521
24.6311
280.478
214.428
154.535
86.4747
35.5663
261.189
193.785
113.916
54.8065
14.9194
276.975
208.229
108.398
48.1406
1.05347
316.175
40.2514
-2.66414
375.684
205.222
76.8719
19.2875
3.85655
838.693
61.5851
28.3243
7.18076
1080.28
1118.37
1118.34
1006.46
571.475
1117.64
1126.69
1119.12
1035.04
505.63
1125.92
1128.59
1116.99
1090.74
620.233
1126.81
1128.94
1117.78
1066.82
541.262
1118.03
1126.47
1111.99
1067.26
564.263
1106.4
1114.81
1110.85
1008.92
579.489
1056.53
1105.52
1106.86
971.315
571.731
847.505
1091.89
1109.37
27.6589
10.1516
385.833
195.059
87.7886
33.2754
-1.61528
321.407
254.053
38.6729
0.903926
291.208
236.88
124.196
58.7726
6.23878
282.028
216.705
134.74
65.5893
21.7714
217.924
147.716
81.1057
31.6502
258.628
198.331
119.55
49.9059
15.6533
254.54
185.093
106.707
44.6514
4.17107
260.743
176.595
65.4316
8.19321
-4.03378
319.73
182.564
77.7224
11.2479
-1.71151
441.794
126.991
70.322
23.9257
5.42671
945.87
1111.87
1120.9
6.96596
1071.59
1116.51
1116.38
1001.81
554.491
1099.43
1117.03
1113.25
1018.45
520.688
1104.69
1118.25
1118.6
975.188
476.97
1093.32
1114.07
1110.94
1026.26
552.527
1057.92
1108.36
1108.78
987.318
549.252
964.723
1101.74
1113.21
917.393
4.01039
403.781
131.678
71.9951
25.5088
0.413562
276.46
184.242
73.1671
13.235
-3.26905
264.416
206.074
102.627
41.4818
2.79469
272.651
201.554
113.704
52.4447
17.4487
281.528
215.653
123.766
69.8922
27.4965
259.015
199.386
125.069
67.5695
21.5989
240.664
180.196
112.812
51.0029
20.2606
241.81
174.775
76.3058
16.2523
-1.55999
278.099
192.557
88.9653
29.0087
-2.61985
346.297
178.607
76.0535
22.1887
0.0574007
443.797
181.259
66.5619
34.8797
4.95394
826.655
1103.73
73.8036
29.787
6.68757
991.671
1107.94
1116.05
975.706
995.775
1107.95
1115.61
979.117
597.628
989.852
1107.01
1113.11
998.536
825.205
1098.95
32.534
10.514
424.084
32.6633
1.47038
334.52
184.124
85.7288
23.1171
-1.86907
260.074
185.055
86.2168
22.9583
-0.219707
249.603
179.192
97.0003
39.3507
5.89483
258.845
193.005
124.861
65.2864
21.8189
273.935
206.156
138.926
76.9818
29.9597
243.841
187.168
114.321
59.4993
20.0134
236.048
184.195
103.381
29.4756
4.85923
260.474
185.601
95.0469
35.3864
1.4019
301.579
216.167
100.792
35.6035
-0.0320791
325.778
186.506
80.4179
26.2297
-0.683646
339.199
156.058
72.647
25.9198
0.364921
376.385
141.282
70.8072
18.645
7.22492
420.774
175.26
24.2184
4.4743
359.855
146.543
72.3589
24.45
1.12224
335.519
167.347
78.1647
21.896
-0.0877307
323.24
218.881
95.4888
39.3137
0.0106982
299.187
222.424
105.299
42.7265
1.42793
265.745
193.461
107.887
46.531
5.3686
254.064
191.228
122.885
63.5452
20.407
257.308
203.047
138.791
77.0231
30.545
244.205
177.631
109.209
53.6673
19.411
260.189
197.511
108.576
49.4907
13.4107
268.101
207.695
111.735
44.5985
3.25589
254.779
178.444
82.9874
20.0565
-0.472612
261.919
174.567
77.1042
16.9344
-1.24094
306.434
187.316
86.53
28.0521
-0.165449
329.84
216.711
29.4588
1.10118
268.143
200.578
80.1161
18.094
1.15048
257.756
171.472
72.045
20.4232
1.42972
269.063
195.152
101.463
43.4544
4.01424
271.38
217.868
117.405
51.2954
6.34084
264.745
207.199
120.249
57.0231
18.1416
257.778
200.214
134.738
70.1225
28.5354
209.382
139.996
79.9514
32.7718
265.836
63.6603
23.6994
250.583
185.721
112.139
56.8446
21.5151
249.559
188.511
113.779
55.7829
19.1116
247.355
174.845
92.0762
36.4322
6.59115
268.688
185.297
102.247
43.6994
3.58213
284.18
208.08
39.0726
4.67045
248.637
195.307
102.059
30.4034
6.87411
251.992
188.319
89.1494
44.1324
10.7381
247.195
183.057
114.817
63.8187
19.4809
253.929
189.504
123.47
57.9852
17.2823
268.244
227.153
129.598
64.4944
26.6599
134.657
71.4002
29.984
257.966
201.059
126.903
71.0111
28.4213
249.162
193.2
135.074
76.1731
29.702
248.021
186.548
122.826
67.5711
23.1688
259.316
182.492
112.506
58.2639
16.103
271.752
204.418
51.7352
17.1122
254.177
186.969
113.465
53.2842
20.2658
243.19
178.147
118.928
67.6256
26.3367
246.822
189.201
131.177
77.9719
32.3137
255.757
199.327
132.153
76.8312
27.5879
268.7
200.963
135.488
76.157
29.0419
285.07
209.355
63.6481
26.9345
268.433
205.6
134.279
71.7021
28.953
77.0284
31.5632
135.584
121.944
72.1552
64.2549
30.759
24.7145
2.86779
270.144
210.106
130.032
190.325
122.131
120.128
71.5505
112.835
64.2878
64.6052
30.0221
52.5174
28.7368
24.5291
2.62398
24.6393
2.37527
270.088
222.554
209.991
194.404
200.903
136.689
126.774
70.7543
50.1766
29.31
63.7074
33.3605
24.8451
2.52819
27.9465
2.6405
206.985
198.705
138.175
128.394
72.7553
66.2953
34.193
28.8074
2.75874
202.778
195.708
140.405
130.088
75.0367
67.4464
29.8049
24.7769
1.64667
249.412
202.195
243.534
201.656
195.751
140.818
187.746
144.951
130.677
75.9065
128.363
82.4165
68.2019
30.3411
69.8703
34.969
24.875
1.47814
25.3347
1.47316
243.742
199.239
243.275
203.388
186.524
146.124
187.083
141.604
129.752
83.1853
125.1
79.1318
70.7193
35.3437
67.2509
34.1443
25.6008
1.71078
25.6201
1.30467
262.512
206.114
241.687
214.206
246.219
219.062
197.222
134.625
178.522
147.054
177.342
142.483
79.4991
119.509
75.7109
114.824
82.7487
110.375
78.693
33.6546
63.1819
32.3257
59.5365
37.586
55.2111
33.6181
21.9374
2.64287
20.5952
3.62241
19.0129
3.10071
207.535
268.411
213.096
251.945
220.512
261.351
226.66
133.847
192.165
122.986
174.574
136.14
202.391
118.171
74.5205
114.796
64.8438
104.574
77.8857
106.042
56.3321
30.5605
54.0133
28.661
49.2488
27.145
46.1474
25.6879
3.03794
22.2365
2.76166
15.5033
2.12584
14.4641
2.39395
221.02
267.281
215.727
262.982
236.744
256.29
232.921
198.402
139.978
202.711
200.217
134.898
120.837
73.7676
59.0386
116.987
64.5419
29.6942
59.4558
34.3498
44.9541
26.6336
46.8895
32.0329
3.24236
25.6313
3.43941
14.9726
2.47309
16.9112
2.06978
210.401
211.37
250.905
223.223
247.161
218.199
142.384
188.13
141.669
182.449
144.097
181.508
146.684
76.8246
132.17
81.2954
108.803
79.1883
112.811
82.6533
35.6259
73.2276
38.3541
54.2794
34.1853
58.8799
39.3679
3.39922
30.4412
2.78038
19.1477
2.77183
20.9975
3.30464
247.231
204.614
247.972
200.739
142.521
178.248
150.136
188.409
146.587
82.4256
118.086
89.7654
130.284
85.1596
38.7486
66.4033
46.5582
73.8082
39.2456
3.01234
22.5712
3.79696
30.1752
2.72869
248.178
203.241
261.594
203.549
189.137
146.598
197.036
146.322
130.889
87.25
129.806
85.3053
75.2423
39.3695
73.3431
38.5253
30.5384
3.08141
29.4104
3.32695
261.872
204.648
198.446
144.856
135.365
82.0715
75.7138
36.4768
31.7232
1.89529
260.207
220.279
57.5688
27.5043
19.8012
2.97218
252.569
203.822
259.682
215.487
248.845
222.18
196.999
143.549
200.47
182.864
149.336
124.972
77.0699
62.2741
115.093
78.1183
63.5095
30.1259
52.7032
26.381
45.8975
26.7102
21.9796
2.19387
20.6692
2.34632
16.074
4.61168
204.754
239.612
213.931
243.872
220.56
240.549
219.371
144.649
178.16
149.769
180.405
150.745
180.923
148.061
78.5762
116.604
86.5236
117.624
80.6442
112.86
79.9313
31.462
59.7144
37.7588
47.5937
25.9373
50.6086
31.4193
2.2115
18.9013
3.85857
15.8698
3.23978
18.7967
2.32379
134.084
202.339
118.499
175.568
131.74
199.559
110.384
66.8021
106.029
55.374
95.7355
61.0368
95.9239
46.862
204.577
132.632
197.255
212.58
128.029
57.8737
115.125
59.8297
49.2614
108.139
50.8472
214.948
255.385
204.786
247.588
225.112
250.383
223.974
207.894
254.718
227.074
268.316
224.029
148.847
188.901
159.665
209.298
146.234
83.3386
120.465
82.8612
125.987
73.9099
37.1351
54.2479
34.934
59.2504
35.9512
3.44955
21.1792
6.55154
25.4479
2.92087
271.189
228.572
218.528
140.25
204.891
138.302
130.316
70.6177
128.043
74.5977
60.7917
32.7852
66.4543
37.1114
26.4311
3.1809
30.3406
3.98854
240.966
192.952
175.967
130.804
115.728
73.1416
62.7349
32.9226
24.9543
2.36354
257.517
214.272
241.266
192.666
243.757
216.43
205.436
167.257
135.854
183.554
121.002
49.1482
102.719
74.1578
104.336
58.8474
56.8619
27.2148
51.1933
33.2002
45.7294
26.9026
21.1622
2.44243
19.49
4.43278
15.8792
3.11523
196.149
135.707
192.195
121.432
211.145
117.295
118.296
62.6571
102.929
56.3165
106.593
47.8459
126.571
201.536
109.336
179.67
120.105
215.89
100.032
54.0916
94.9638
44.9156
79.4415
47.0888
89.0834
37.6956
214.36
126.138
219.205
219.202
115.296
47.2617
104.335
46.9128
41.274
91.5985
38.8005
145.776
217.023
138.905
216.929
135.985
211.896
127.435
69.3147
127.848
69.5936
114.71
63.3493
116.957
63.819
226.566
272.543
215.572
264.574
228.113
257.815
226.705
200.127
142.596
204.09
133.966
186.429
155.419
67.171
124.947
78.4534
115.338
68.3278
119.539
82.5636
33.7048
64.2112
35.9405
56.0131
29.0927
51.9025
34.704
5.66565
27.663
4.28426
17.5397
3.78489
22.4524
5.46956
213.955
258.389
213.112
207.453
140.713
196.614
148.038
199.362
149.128
76.5868
131.513
81.6186
136.698
88.5421
36.2423
67.32
34.8949
78.2781
39.1192
4.32859
27.5852
2.28574
30.6993
3.8751
239.01
192.869
179.933
137.345
120.873
78.8005
67.454
37.1605
27.187
3.21572
238.209
193.357
236.585
193.59
232.423
204.118
165.739
136.492
178.64
135.592
167.294
140.541
106.446
80.0379
120.444
76.5777
107.478
76.3304
58.1857
37.0406
65.3856
37.2004
54.8529
35.3248
20.7684
4.49953
26.9076
2.00979
19.341
3.31812
120.269
217.315
115.296
176.212
130.004
201.953
111.563
53.9534
102.55
47.4357
88.7385
57.6631
89.3783
46.0168
117.444
188.005
125.721
215.346
102.294
210.403
111.056
45.4399
102.069
50.5044
91.3598
40.7442
88.3658
39.1276
112.138
214.438
96.9474
142.523
98.7788
177.238
82.3669
42.9007
86.7604
37.0546
68.2334
37.7029
73.8531
31.9918
215.182
108.57
185.136
158.67
82.7066
40.2852
87.3105
35.932
36.796
71.395
30.9264
141.1
220.696
135.024
219.492
115.559
243.233
60.873
111.701
58.5323
93.7295
41.5643
43.8158
130.363
207.268
130.526
228.314
114.561
206.75
133.467
55.1831
111.143
65.2413
103.654
48.1602
112.193
57.294
222.799
260.4
211.355
251.318
228.547
250.42
223.036
153.326
196.839
153.897
189.649
155.879
187.669
158.834
93.5382
133.935
91.747
122.294
89.1818
126.111
93.96
40.0777
77.1485
39.6815
61.2559
34.4095
65.6212
39.0759
3.34829
28.7548
3.45741
18.633
1.63402
20.6813
3.60863
209.938
256.23
214.642
150.48
200.669
155.024
89.4877
137.824
90.5041
39.3449
75.6354
37.0948
3.63793
27.2752
1.73479
195.065
133.449
122.642
75.1418
66.2208
30.1151
21.0175
2.27392
237.309
195.924
250.629
200.243
239.673
208.668
179.867
135.394
192.7
133.916
177.273
142.395
119.582
77.1637
124.008
74.2915
105.228
76.8179
67.2848
38.3801
69.2834
30.4328
60.1968
43.8838
27.2874
2.06979
24.5039
1.63843
20.2865
3.22392
104.461
209.041
101.416
188.996
97.0489
184.847
77.6644
42.376
89.6096
36.9396
77.959
35.4246
70.9523
25.977
103.74
146.817
101.313
196.573
92.456
76.8847
34.9604
72.7782
40.9887
22.4848
67.2737
34.4138
91.3516
129.104
81.6271
75.0499
1106.11
1119.97
39.995
73.5198
32.6561
70.0786
34.7918
1118.13
9.42162
19.5879
6.97248
24.5213
9.35081
9.57385
-0.252883
4.43035
-0.814663
7.66895
0.844711
7.00821
0.267724
162.365
548.631
177.523
958.201
1088.88
988.703
1088.92
79.8507
136.526
79.6012
1109.89
1119.32
1107.35
1118.09
32.1713
70.7785
31.3768
1117.52
981.683
1115.6
970.624
8.44261
23.496
6.35502
1006.46
8.15208
1008.17
-0.792428
3.9662
-0.814862
4.91242
-0.427459
-0.59793
199.449
510.593
167.116
989.639
1088.46
966.847
1081.16
122.692
80.6208
1106.24
1117.48
1102.43
1113.21
36.2049
68.2803
31.7026
1114.66
990.856
1111.83
952.779
5.82976
24.7469
8.36217
1006.03
999.199
12.383
-0.539446
4.6196
-0.477747
-0.940051
1.79467
-0.183757
76.9403
137.33
77.2452
1098.97
1112.79
1083
32.5835
68.9847
37.2489
1111.56
989.846
34.9075
7.37834
19.1554
8.6974
1005.38
6.47697
27.2887
9.45845
-0.31715
6.43161
-0.119755
3.75111
-0.170691
7.60121
-0.342557
88.6347
167.047
106.405
69.1398
166.056
69.1257
40.0591
72.0574
38.5026
55.2514
33.0192
63.7544
26.846
266.842
346.355
268.58
426.728
246.369
380.658
275.384
107.62
238.28
111.448
208.138
103.448
35.2335
100.692
45.2399
84.1851
36.0836
7.28155
38.2484
10.2327
18.7407
7.01596
29.6086
7.91093
120.458
194.979
141.868
198.512
128.603
201.051
139.007
49.4063
97.0678
57.2794
79.5374
43.6525
92.1368
52.2939
214.722
255.864
230.054
265.015
221.181
163.025
192.135
161.842
205.007
159.799
95.8838
126.91
91.5999
141.469
86.9152
39.7308
62.7853
36.3417
71.9381
37.3836
4.07529
19.3677
2.6665
28.0606
2.59379
270.197
220.119
211.425
156.272
146.129
86.6113
71.0357
37.9618
27.1309
1.87532
249.659
200.121
260.974
212.688
193.98
133.803
195.111
136.249
124.015
75.4631
116.741
66.1843
65.5424
30.5777
54.3499
28.4864
21.725
1.90671
21.9315
2.26936
204.239
241.498
217.174
256.474
218.523
246.713
221.943
138.342
179.547
138.679
184.266
145.742
181.047
139.703
73.6146
101.669
73.8358
108.462
73.0525
100.813
70.0477
33.0467
53.8818
35.4129
46.4707
31.2511
48.0525
29.7078
3.27495
19.1632
3.17634
17.2618
4.49122
16.7143
2.73929
94.2724
157.19
78.3495
125.675
71.0835
1108.19
36.5284
65.2125
34.0283
56.1987
35.2998
34.9795
72.2907
67.446
1107.93
1127.36
1113.64
1122.8
29.2543
61.2128
33.0948
1126.51
34.3208
1118.89
979.565
6.76838
27.7209
9.72662
15.549
7.67698
999.098
603.927
1.50994
7.83438
0.124672
4.46742
-0.200986
579.438
1107.61
1120.15
1116.39
1120.92
1116.25
1119.09
33.7723
1117.25
1072.76
1117.11
1008.09
1114.82
1026.83
10.8521
1018.61
992.885
601.107
1014.52
612.244
-0.168031
0.0991735
0.429858
577.132
6.50951
560.66
3.32562
1118.88
1111.81
1116.35
1116.17
1118.03
1116.26
1116.82
1016.33
1115.05
951.229
1114.18
1016.75
1113.76
1044.64
1007.03
617.029
1026.84
596.019
1015.76
553.534
0.316759
601.789
-1.98392
531.516
14.6039
552.245
42.1769
1114.95
1107.86
1112.8
1114.54
1115.89
1112.06
1112.61
979.224
1109.84
1005.92
1113.83
1046.73
1108.52
1073.24
619.201
1002.5
630.328
1007.47
606.894
993.825
598.437
-1.53495
-0.26403
575.126
578.356
1.38325
1112.29
1084.43
1112.1
1108.97
1110.89
1104.83
1109.96
980.63
1111.26
31.7901
1107.86
1030.29
1106.26
1005.45
16.5238
10.9299
979.922
559.266
994.39
574.353
0.34654
9.91395
-0.137703
549.201
10.4159
560.851
21.3425
1111.43
159.95
1097.31
1107.85
1090.64
1107.62
27.5286
28.1653
1105.54
1122.35
1105.23
1030.21
8.91451
16.504
8.1538
990.337
578.804
997.928
16.2114
-0.241791
9.14679
1.00284
562.914
30.8102
2.6477
-0.123363
146.288
98.3473
1080.96
1108.06
96.1069
71.0356
67.6803
37.5934
1106.64
1029.86
63.3375
30.4919
8.74754
18.3809
8.29272
14.1896
18.8874
9.51268
225.791
278.447
230.597
159.559
214.013
154.762
84.4247
134.275
77.0373
36.0842
64.0655
31.9589
2.6956
25.1246
2.35625
263.911
218.807
260.976
213.46
201.668
129.39
193.832
135.564
118.933
62.0294
117.787
66.971
55.0151
27.7813
54.5057
26.8408
21.533
2.65108
21.2913
1.74115
218.888
256.596
219.764
259.229
216.531
262.989
230.07
131.374
196.734
127.4
194.654
134.006
199.912
121.766
63.397
106.594
57.5333
113.908
64.8082
108.322
58.6194
27.2753
48.1618
24.3081
52.3745
25.4854
49.4406
22.105
122.579
184.993
123.046
199.14
120.166
226.367
53.4923
98.5612
51.2546
106.37
56.9998
40.798
127.73
179.052
113.973
226.673
101.746
205.571
96.9803
43.8195
71.0829
37.6189
90.7085
38.4245
79.5707
30.8847
97.3965
114.59
82.9255
192.207
89.3062
98.4422
73.786
36.3262
57.6301
38.0611
73.1634
32.9328
62.6103
32.2293
72.9845
1108.48
1127.52
67.4333
1117.27
1126.35
32.7549
1126.51
34.3954
62.2392
31.3202
1123.46
1055.17
8.57833
16.1676
6.81059
25.8112
11.1887
993.531
602.628
0.585913
4.36865
-0.41032
7.85475
-0.156136
581.694
10.8639
1121.21
1006.96
1122.92
1004.5
1123.04
1039.67
9.59396
1002.61
598.48
969.68
596.121
1001.81
504.726
-0.575625
574.248
577.034
19.3545
544.35
-0.383771
1020.95
1115.38
1001.97
1123.46
1104.01
1120.25
1097.28
594.306
1012.53
593.385
1015.69
565.494
1061.37
553.224
1.70876
593.297
1.43442
561.808
3.62959
551.32
-5.89579
1036.08
1113.62
1052.92
1116.68
1179.93
1109.48
1214.11
593.18
1027.15
557.533
1056.67
548.622
1062.97
566.067
9.47337
552.823
39.367
469.83
572.58
-1.99959
1051.01
1109.78
1045.44
1109.85
1089.58
1109.48
1093.1
606.786
1003.71
594.244
1054.03
397.529
1075.16
500.981
557.97
1.18582
522.619
362.24
1010.7
1107.76
1039.78
1110.57
1085.99
1109.44
1057.46
587.658
997.105
594.495
1076.31
545.673
997.867
571.063
11.9532
568.539
28.1783
528.97
555.528
1.58754
1019.85
1104.14
1023.97
1107.35
944.645
1101.59
1001.71
568.031
1013.28
996.787
545.957
1000.58
577.304
46.9386
-0.245401
568.435
10.0914
539.486
15.3334
1107.28
93.2303
68.9125
1096.96
1103.52
1076.65
1104.46
1030.72
60.5732
32.9249
1099.7
1001.74
1102.47
13.4891
26.6714
10.4937
1000.12
573.355
25.5521
13.6698
-0.600069
9.73124
0.0838115
557.733
28.0887
10.7733
-0.254253
72.8457
150.723
96.1395
1073.71
175.782
87.0556
30.8566
62.8294
40.6986
36.2881
64.2571
43.732
9.31045
25.1892
8.71198
31.3999
13.416
24.9267
12.7643
116.924
194.488
132.648
200.167
93.1515
233.33
112.726
43.9193
87.5907
51.1606
78.4613
40.686
99.8791
46.0398
145.747
215.989
142.346
256.302
114.472
238.922
62.5827
122.297
65.7783
102.784
45.3545
61.7823
145.952
218.531
149.43
230.681
133.808
225.453
150.387
68.6302
129.523
72.9776
119.971
62.7327
131.883
73.5633
240.691
281.892
241.145
290.025
231.749
147.323
219.611
152.677
223.387
158.376
74.5427
133.223
76.119
137.541
86.6928
33.5879
62.6226
33.5312
72.3982
36.6288
5.11212
20.1192
4.9001
27.7615
4.17901
235.184
218.927
155.024
143.927
85.4201
77.475
37.1968
30.9018
3.41961
256.207
207.184
203.126
240.391
213.63
178.21
152.084
192.869
142.921
177.178
148.8
117.043
78.3934
133.201
81.9251
118.664
87.0351
50.0714
32.6545
72.8289
34.288
57.2392
36.2692
18.5029
3.51489
27.044
2.70833
18.6064
2.62073
138.945
192.423
130.316
180.916
146.606
180.721
140.502
72.1459
106.746
60.77
109.225
74.4013
103.176
67.988
125.664
181.359
135.736
180.45
127.594
57.2075
95.6435
61.2937
85.2295
52.2258
215.031
88.0872
197.443
106.68
174.588
87.0906
79.2311
30.5964
87.1469
39.5235
75.0847
34.6592
245.513
728.014
88.8038
446.592
222.15
902.898
1100.01
84.4017
99.144
70.1378
158.195
84.2663
1110.57
1126.23
31.1228
63.5218
32.4871
73.3236
31.9201
1124.72
8.55273
25.1287
10.8361
26.0289
7.78719
11.8024
-0.480694
7.80886
0.0891916
3.95421
-0.782598
6.60939
-0.371182
68.5798
1121.94
1125.84
1113.12
1125.37
1121.67
1125.1
32.4148
1122.39
1025.52
1122.84
1052.49
1120.92
1033.29
12.0966
995.452
601.279
1050.14
7.92135
1025.22
542.01
-0.678792
578.982
3.32462
0.796679
-0.717937
553.191
1.02743
1141.18
1123.15
1048.2
1121.23
998.133
1120.28
1064.57
595.246
1020.85
572.751
1015.87
577.769
1080.15
492.799
7.34774
569.534
572.919
1.66563
540.311
24.3034
1060.65
1121.34
1080.55
1119.94
1126.2
1105.72
1090.4
539.517
1071.33
556.187
1084.59
500.312
1036.33
493.294
-1.60281
599.134
-4.44103
535.653
605.47
1221.24
1103.49
1199.91
1096.94
1053.97
1070
939.111
506.783
1067.62
549.942
971.615
521.07
861.854
547.214
-5.82047
542.017
-0.491691
526.106
478.94
252.141
1134.39
1133.8
1131.95
1161.85
1135.59
1144.86
1138.22
1114.34
1126.95
1114.3
1129.19
1092.42
1130.56
1093.68
1091.11
1105.46
1114.32
1076.44
933.361
1086.84
954.407
527.093
1079.72
357.929
860.29
537.489
849.216
595.099
499.283
466.175
231.024
527.337
157.773
1085.62
1110.74
970.801
1092.26
991.536
1102.7
1079.45
524.107
1012.74
606.969
875.545
560.203
1069.64
526.436
716.813
4.12282
512.505
136.285
543.437
1097.72
1100.03
1003.93
1103.23
1179.77
1100.56
1036.02
604.352
999.74
586.444
1070.93
496.316
1006.53
511.689
15.9719
538.543
24.05
556.131
533.987
29.699
1103.22
1084.56
1103.51
1100.05
1102.28
1095.45
1101.36
1025.19
1101.84
1098.83
1041.25
1098.11
948.873
573.322
13.1318
1005.26
539.645
926.116
585.511
33.4055
9.66319
0.152946
530.184
41.937
566.945
-1.80802
1048.35
537.966
269.905
930.971
1058.21
603.398
184.741
1105.45
179.688
82.0234
1088.31
1102.99
135.977
79.129
28.6405
72.5579
37.2168
1099.75
922.838
67.0197
37.5833
13.3925
30.555
11.7206
951.432
586.616
28.1902
10.758
0.191953
6.13475
0.0256611
0.28507
6.60182
-0.128888
86.4912
255.175
175.888
88.5009
217.691
106.619
38.8547
37.4088
71.6885
39.5432
87.4748
44.4636
235.73
132.038
219.333
114.267
202.835
144.893
120.319
62.7681
92.5744
45.5629
96.8776
63.4782
140.05
217.085
150.923
201.216
154.5
201.423
160.222
69.1752
133.706
75.1391
111.49
73.5103
121.106
82.1426
245.26
288.564
230.755
268.408
241.374
276.898
221.626
167.5
216.744
159.124
197.77
163.014
209.478
165.576
89.2354
141.556
90.4858
129.598
98.0902
149.167
95.7033
35.213
74.9395
38.4594
63.8296
38.4412
80.3919
42.8611
4.23124
29.1157
4.22268
21.853
3.75818
32.0202
3.61083
228.953
281.29
220.861
155.707
214.078
162.893
87.3924
153.738
93.4507
37.8581
85.4565
40.6045
3.03704
34.0787
1.72292
151.236
134.576
82.7419
74.4648
35.3568
29.0469
2.63569
201.718
237.492
212.955
246.783
199.047
234.945
211.466
143.964
178.434
150.067
191.347
151.743
179.57
151.878
83.3057
120.226
88.5504
133.057
86.1431
121.316
89.2116
35.2291
60.0343
35.8067
72.2017
36.9861
60.4316
36.2538
3.3236
19.0974
3.04195
26.7216
3.29395
19.4105
3.14433
80.2359
1110.29
1125.64
105.005
71.7341
1117.97
1123.69
31.3747
1124.11
64.4888
30.6921
1122.46
1026.56
8.00465
11.7736
23.4567
7.63746
1047.19
12.4086
-1.12376
6.06683
-0.73799
3.70671
-1.18442
0.834219
-1.45781
1125.25
1121.03
1123.77
1119.12
1123.22
1120.88
1123
1047.46
1120.45
1063.82
1120.43
1040.43
1119.76
1032.78
13.0455
1028.91
578.621
1042.82
606.795
1008.65
613.843
-0.356235
526.334
-0.990455
627.714
32.4484
1040.58
1119.98
1091.18
1121.98
1019.43
1122.99
1058.61
548.869
1077.8
551.309
1023.48
623.354
1085.51
519.55
412.752
-0.180201
655.616
35.6606
529.056
22.5517
1059.89
1096.57
1051.59
1120.39
1055.32
1097.38
908.136
546.747
983.201
528.309
1090.4
518.019
860.129
577.638
-6.49413
511.395
529.846
25.2121
497.907
203.318
1139.91
1167.87
1135.54
1161.43
1141.91
1143.91
1139.24
1103.14
1132.19
1086.7
1136.08
1102.98
1132.82
1088.58
1008.55
1064.29
913.067
1079.98
910.401
1048
933.967
583.067
814.69
557.737
811.785
574.855
754.339
582.432
147.806
410.126
357.036
479.788
261.882
431.569
434.17
1135.34
1152.2
1134.86
1141.82
1138.12
1157.81
1132.29
1093.12
1128.81
1091.81
1130.81
1088.35
1130.38
1085
909.095
1083.27
930.458
1054
944.205
1048.41
936.824
549.634
872.858
571.602
753.806
581.288
747.697
579.435
371.297
469.41
239.063
454.054
473.377
434.463
446.632
1137.21
1131.63
1129.4
1155.88
1132.26
1137.42
1133.23
1090.28
1122.93
1107.42
1128.99
1096.47
1126.07
1103.75
939.249
1098.05
1102.26
1071.4
905.01
1089.72
1054.93
585.976
1071.54
527.425
803.575
538.986
1063.02
508.172
154.058
526.318
464.122
302.194
514.728
-1.86352
1087.65
1100.31
1043.45
1099.36
1067.87
1101.86
1048.3
523.868
1006.99
559.549
1063.25
507.938
1035.52
555.734
-0.70534
478.134
74.0685
510.985
-1.65447
529.858
1.36543
1035.78
1098.44
907.052
1100.2
1022.51
1098.71
1014.52
555.593
952.08
582.923
1022.96
560.052
989.41
584.006
567.827
523.838
4.02844
559.956
22.9833
1102.96
113.977
81.1336
1088.81
1103.85
70.9685
70.5195
952.894
68.4691
38.7604
1101.42
1010.23
63.6182
39.3782
585.042
29.9498
12.1394
984.824
584.346
32.5178
14.4514
-0.775368
10.3826
0.340266
562.376
11.7544
-0.17226
91.7423
175.095
111.034
109.433
70.4792
170.864
105.901
47.2814
72.2455
45.0523
59.9335
43.3741
68.0737
43.8158
239.562
275.572
220.451
266.233
239.44
271.493
222.33
166.323
208.548
166.321
198.194
167.533
208.812
170.952
97.9359
150.277
96.8619
132.578
97.791
137.993
104.515
41.1806
82.9344
44.075