/*--------------------------------*- C++ -*----------------------------------*\
| =========                 |                                                 |
| \\      /  F ield         | OpenFOAM: The Open Source CFD Toolbox           |
|  \\    /   O peration     | Version:  4.0                                   |
|   \\  /    A nd           | Web:      www.OpenFOAM.org                      |
|    \\/     M anipulation  |                                                 |
\*---------------------------------------------------------------------------*/
FoamFile
{
    version     2.0;
    format      ascii;
    class       volScalarField;
    location    "30";
    object      p;
}
// * * * * * * * * * * * * * * * * * * * * * * * * * * * * * * * * * * * * * //

dimensions      [0 2 -2 0 0 0 0];

internalField   nonuniform List<scalar> 
146404
(
-3.66191
-1.22807
-3.73441
-0.887273
-7.5421
-4.35703
-1.50997
4.09689
2.65592
-10.2305
-0.65139
-0.582035
1.40139
-7.34184
-4.48524
-1.72801
-3.60227
-3.57658
-2.50337
-2.58192
-1.45714
-6.40258
-4.83174
-2.11867
0.706868
-1.73643
-6.11132
-5.86608
-3.04139
4.42095
-3.19285
-11.6722
-7.38525
-2.34769
5.40349
-0.871701
-9.45753
-6.21013
-1.86787
10.3634
9.71247
-14.25
-2.34818
8.4642
-0.0342766
-9.80561
-6.59497
-2.85745
7.29688
1.46624
-5.1058
-5.54852
-2.91242
6.33565
2.50428
-4.18562
-4.76205
-2.29805
4.45175
3.0282
-4.06703
-3.37127
-1.52652
5.21034
-3.37852
-0.777781
4.54411
-1.55682
-10.973
-6.92591
-2.92512
7.79284
-3.02101
-14.7561
-8.46963
-2.80335
9.98883
-4.41482
-19.3517
-12.4681
-3.78471
12.3907
-1.49874
-16.0162
-10.2131
-3.66779
18.6794
6.40104
-22.1504
-4.17592
15.8085
-3.69044
-19.0029
-10.9162
-4.35373
20.0573
-1.03218
-16.5602
-8.86055
-3.93345
14.4603
3.07891
-9.89922
-7.89084
-2.98838
11.7132
2.49451
-8.282
-5.91591
-1.7796
11.5069
4.81797
-10.0895
-0.157757
5.87868
-4.72339
-3.14748
-0.564105
1.13567
-1.80499
-7.59053
-4.63892
-1.58581
7.23042
0.152051
-13.6217
-6.24467
-1.39561
13.4608
3.4146
-20.5227
-6.0196
-3.26644
17.9685
-5.98735
-21.4097
-12.7683
-3.48486
26.9878
-20.3879
-28.7842
-19.6064
-5.81507
40.0778
-29.4466
-33.3908
-20.3304
-8.08728
48.1173
15.6846
-34.4162
-9.10696
40.4
-25.3247
-43.564
-23.6721
-7.1913
27.0271
-17.7346
-42.584
-23.0123
-4.58959
27.5938
0.795656
-22.9414
-14.4886
-4.73921
21.7162
9.63346
-19.836
-9.958
-1.5029
13.7635
5.05709
-9.29482
-6.23887
-1.9478
8.14063
4.75403
-2.78129
-3.48974
-1.63131
5.34797
-0.417579
-1.64681
-1.29661
-0.727604
-2.20075
-5.8423
-4.96733
-2.48738
5.53038
-3.71043
-12.7151
-6.89216
-2.21997
11.0342
-3.33646
-16.9191
-10.8349
-3.30137
30.5323
-0.631813
-35.1834
-12.9117
-5.12799
59.4881
-20.6858
-57.4949
-27.5439
-6.18064
106.165
-132.22
-91.5456
-35.6895
-8.95164
112.908
-169.338
-106.843
-34.4033
-13.4223
137.616
-157.473
-31.4767
-18.4233
115.164
-179.689
-121.809
-38.5976
-14.273
92.0715
-131.578
-95.9432
-40.7243
-13.2951
59.2074
-8.3172
-68.1025
-37.4996
-8.58644
36.272
10.6672
-38.8226
-20.5477
-6.18021
18.8368
3.6486
-13.7103
-8.47987
-2.88622
13.0861
3.19082
-5.65601
-4.31409
-1.85492
7.19803
5.50454
-1.47092
-2.83112
-1.80675
-3.40344
-1.93476
-6.63978
-3.82916
-1.78652
4.30486
-4.11531
-9.21544
-6.05129
-2.25834
9.35671
-5.79946
-20.1379
-10.2036
-3.14343
20.6949
-14.8001
-38.2581
-14.5183
-3.31824
62.2508
-139.592
-63.2651
-24.5787
-5.97469
139.942
-158.494
-107.581
-33.6256
-8.38081
313.217
436.901
-35.156
-9.66639
383
435.035
436.26
411.52
385.708
431.645
435.559
432.158
304.393
373.155
431.611
435.241
423.026
306.466
428.772
-41.981
-12.7021
174.306
-42.407
-12.5177
62.0722
-53.0747
-92.162
-28.2061
-5.41753
25.5113
2.43285
-27.739
-15.3195
-4.61366
17.7344
6.78197
-12.8912
-9.22154
-2.82435
12.1543
4.4801
-3.95525
-4.62554
-2.06175
5.94312
5.33824
-2.43085
-2.39665
-0.976213
4.07929
0.13532
-11.6491
-2.80628
-0.538977
7.15312
-2.64215
-14.0326
-7.68377
-1.20892
15.5289
-6.83877
-22.7265
-12.1696
-3.61985
46.1538
-61.4258
-54.8064
-21.0636
-5.76343
143.202
-130.068
-96.7196
-32.3815
-9.02794
376.9
438.655
438.512
-9.17057
413.917
431.471
434.44
405.001
291.999
415.262
427.688
432.076
439.961
319.634
413.861
426.254
432.492
423.274
274.406
409.624
425.79
430.769
413.842
322.208
390.606
426.175
431.749
399.273
284.603
345.756
431.801
433.929
425.799
-11.6378
172.076
-81.4515
-125.444
-42.1191
-13.8942
42.2564
-27.5767
-51.0938
-27.0069
-7.75258
25.5535
7.03862
-20.0168
-14.3531
-2.09397
16.2899
7.90743
-10.6161
-7.6137
-0.895062
11.6607
6.89848
-8.552
-2.47899
-0.760378
3.61355
-1.86805
-11.26
-5.02445
-1.97752
10.6593
2.78624
-17.4713
-7.45887
-3.06801
30.1416
-19.619
-5.6715
81.2601
-85.9393
-73.9607
-30.6757
-10.2097
306.305
-89.6884
-26.9398
-9.93961
414.728
431.944
436.7
390.673
270.672
418.877
428.79
435.797
373.205
258.573
417.274
425.752
434.501
434.57
292.416
415.805
423.443
430.451
434.427
210.075
414.343
423.576
432.224
457.102
330.625
408.871
423.946
431.485
350.01
310.61
385.929
426.228
427.833
430.225
299.445
300.993
427.054
432.941
-40.3452
-14.6534
80.1878
-69.4393
-102.674
-41.9864
-10.8167
35.4881
70.5175
-41.8465
-4.69898
18.5097
11.1605
-17.1671
-9.10599
-1.97909
11.0618
4.99252
-6.63014
-4.10022
-1.85103
6.01667
-3.09069
-2.06268
-1.22261
-1.38346
-4.53816
-3.38737
-2.34289
4.33985
-3.4226
-11.3854
-5.79123
-1.8413
10.6213
-4.68031
-21.075
-12.1494
-3.11495
32.9294
-22.7009
-32.2914
-20.3717
-6.14631
93.4374
-168.126
-108.305
-29.6586
-9.61168
380.864
437.208
438.247
438.659
-8.28569
418.171
430.833
435.284
389.732
258.604
418.959
427.558
434.296
461.965
220.902
418.205
424.688
423.689
299.387
245.941
413.281
421.304
413.628
343.941
243.587
414.197
420.687
418.212
296.324
238.724
412.464
422.731
430.389
443.824
174.904
398.653
422.846
427.753
410.711
242.997
345.268
430.67
433.809
384.037
300.799
118.927
-125.756
-109.895
-45.104
-15.6554
26.586
-2.49538
-31.971
-12.4665
-3.65095
17.6789
3.4335
-10.8297
-8.22686
-2.60193
11.7177
5.4676
-5.02255
-4.95627
-2.39155
4.60175
5.15665
-0.203136
-2.34073
-2.21076
-7.87555
-1.96239
-4.07779
-4.50242
-2.37671
4.32583
-3.53075
-11.3278
-5.75127
-1.90257
10.5164
-4.95389
-21.2537
-12.3797
-3.39793
33.1739
-28.3185
-33.906
-21.6026
-6.76705
116.889
-99.6936
-112.146
-34.2857
-7.72248
387.192
437.554
438.217
421.444
418.724
431.504
435.75
441.088
322.25
420.052
428.432
442.658
453.28
218.15
417.251
425.752
418.078
332.255
259.517
412.3
420.548
406.379
349.139
256.346
411.262
420.744
415.233
341.146
251.334
413.991
423.634
429.251
462.965
218.924
402.442
423.958
429.328
442.833
246.666
352.918
430.334
433.244
412.27
316.513
136.718
-88.1299
-112.69
-42.912
-13.4019
24.4728
-1.83559
-26.6159
-12.5251
-3.25007
18.5762
3.42852
-12.7589
-7.88788
-2.51629
12.1555
5.19872
-5.32711
-5.09104
-2.31997
4.6673
4.92614
-0.724685
-3.348
-1.75095
-1.49245
-4.30075
-3.13025
-2.42323
2.82035
-1.21922
-8.59085
-5.87033
-1.99604
10.354
-1.05673
-16.3053
-10.7169
-3.3757
35.8468
-12.2504
-32.274
-19.9028
-6.8064
116.277
-176.731
-96.507
-36.9256
-10.5628
374.164
438.084
438.509
414.292
-9.27299
416.463
432.198
435.462
424.601
265.717
420.865
430.048
439.377
443.006
222.24
420.397
427.318
429.752
321.911
241.27
417.909
424.759
419.601
338.514
259.008
417.901
424.507
426.767
331.725
252.505
413.372
426.38
434.338
442.515
142.632
399.517
427.746
430.836
348.615
261.23
336.652
435.37
434.034
427.618
316.815
101.045
-116.833
-129.489
-44.2867
-11.174
34.1649
1.22859
-32.338
-19.0309
-4.71364
18.0791
6.95783
-11.9602
-9.44695
-2.07113
10.2487
4.92499
-4.86656
-4.81185
-2.47623
4.21871
5.01959
-0.874413
-2.29842
-2.23212
5.00605
-0.00600952
-10.8484
-4.46866
-1.42592
11.7753
2.05103
-17.8367
-2.94958
-1.74267
27.7803
-11.962
-3.66385
70.9182
-67.9154
-80.3137
-32.3006
-9.44529
288.9
-103.103
-39.9346
-12.5505
397.977
434.632
436.461
440.916
286.87
416.998
431.327
436.467
431.08
221.674
419.419
429.765
434.945
445.98
332.131
419.023
430.892
449.339
448.304
237.246
415.689
428.585
434.763
433.761
255.032
409.026
428.249
432.356
369.748
251.468
385.316
432.962
432.292
368.13
291.323
291.493
430.963
435.976
-39.5367
-13.0615
62.7996
-81.0844
-79.189
-36.9924
-6.21792
26.7304
17.5895
-37.3593
-1.50287
15.7187
11.7014
-19.6771
-12.1798
-1.25077
9.91975
7.96137
-8.64756
-6.39517
-0.937899
4.6308
-4.26913
-2.96821
-1.59816
1.76736
-2.83356
-13.3187
-4.77326
-1.66368
5.3958
-3.80748
-11.6812
-7.58758
-2.38953
11.8316
-5.45264
-21.7667
-11.9353
-3.82647
34.3434
-34.7817
-41.785
-17.7011
-4.36214
134.407
-105.563
-110.075
-38.9658
-12.4129
333.555
441.353
441.246
-13.1616
393.768
435.747
436.293
432.56
259.691
406.688
431.637
435.523
447.739
246.399
408.679
431.517
440.432
357.799
161.82
403.792
430.735
434.461
444.598
256.955
385.643
434.089
432.665
404.421
282.879
338.668
436.578
436.252
342.661
-10.8782
95.1134
-167.889
-89.6752
-34.2146
-4.52551
16.0452
-6.11983
-25.1428
-13.4106
-4.43775
10.1919
-2.43042
-17.8164
-11.6322
-2.55391
8.8603
-0.895772
-10.2368
-6.54926
-1.98866
6.58439
2.47312
-11.169
-3.03998
-0.591184
-6.05272
-2.9337
-7.09242
-3.98
-2.16955
1.12725
-3.18044
-7.47292
-5.94154
-2.60108
6.27069
-3.11706
-13.9065
-8.22312
-2.67723
17.7952
-6.96984
-21.2645
-13.7438
-4.56577
47.5298
-41.7052
-50.2253
-26.6562
-4.72665
112.097
-146.523
-84.2814
-41.6615
-12.5226
282.311
438.681
-100.36
-37.9068
-11.8493
353.748
438.099
439.536
396.153
362.182
438.076
440.098
405.836
320.676
352.954
437.686
438.128
425.358
284.648
435.656
-27.6026
-10.4584
94.397
-31.8823
-7.35959
37.3149
-25.2934
-41.9343
-21.9858
-4.75236
10.1482
-2.90386
-14.9502
-8.7534
-2.90415
5.39398
-2.11171
-8.62289
-5.12687
-1.87179
3.75878
-0.28311
-5.6895
-4.56813
-2.0675
0.38478
0.302464
-5.0185
-3.61178
-1.28608
-2.58653
-2.193
-5.81204
-4.90959
-2.40543
2.43177
-1.93382
-9.08474
-5.4121
-1.95826
8.72266
-2.06015
-14.4634
-8.69142
-2.03572
23.3398
2.05809
-31.9217
-16.3496
-2.84455
37.2815
-18.1007
-39.3388
-19.5038
-4.21673
53.7232
-100.214
-68.0681
-24.6077
-6.31341
70.6791
-160.926
-67.6878
-25.9292
-7.91825
78.0945
-203.295
-26.2606
-8.91899
71.2758
-165.136
-71.3164
-23.8861
-6.22673
49.6551
-76.4652
-61.1491
-22.4475
-5.49681
32.4311
-16.121
-46.8469
-25.2941
-3.86426
19.1684
0.383531
-33.4073
-15.5617
-1.34462
8.69888
-0.441414
-12.5956
-8.73851
-2.07593
3.91698
-0.852567
-7.20348
-5.38449
-2.3692
0.657019
-0.0226883
-4.51758
-4.24497
-2.20053
-0.160603
-2.05963
-7.88463
-4.8281
-1.86798
6.10086
-0.404785
-13.583
-6.52364
-1.64306
9.17329
-0.134627
-18.6479
-5.04037
-2.59227
8.70053
-3.41101
-15.6305
-8.58882
-3.04724
10.8764
-6.04441
-20.7612
-11.7185
-3.36863
24.3755
-10.1495
-27.8668
-18.0057
-3.46258
30.2959
-18.6754
-23.2187
-3.78522
12.9233
-13.2055
-28.8992
-10.3746
-3.44259
9.26329
-4.16161
-17.0635
-9.78354
-3.36248
11.0971
-2.99151
-17.055
-11.8855
-2.88266
9.23428
2.1525
-19.7241
-10.94
-1.39359
5.96971
2.009
-13.137
-5.41205
-1.06787
1.46689
0.0435944
-6.25496
-4.85934
-1.96805
-0.0605061
-3.72021
-3.16838
-2.11584
2.58643
0.541633
-0.752999
2.21763
-1.84043
-8.85468
-5.9646
-1.88204
4.41719
-1.97051
-9.24879
-6.69438
-2.81087
4.91394
-3.39588
-11.4444
-6.06326
-1.92624
8.66441
-1.74227
-13.3334
-9.02437
-1.5098
12.7685
-3.07667
-12.559
-1.89586
5.99567
-3.9756
-13.1051
-5.52179
-2.12672
6.51882
-2.60487
-9.29357
-5.46199
-2.00008
3.31548
-2.50532
-9.39713
-6.62785
-2.63456
2.36139
-1.74394
-9.80952
-6.06051
-2.1354
3.85525
6.41652
-16.3347
-8.84975
-0.817447
-8.09436
-3.15017
-1.29664
-4.67198
-1.89603
-6.01977
-3.60844
-1.47361
-1.30608
-1.69979
-5.39294
-4.56092
-2.22737
0.75729
-1.19614
-6.619
-4.71837
-2.3571
2.95388
-0.948512
-8.43413
-5.69911
-2.13446
6.84912
-3.22559
-6.43032
-1.07973
2.86523
-2.74258
-9.19367
-5.75764
-2.15525
0.045744
-2.21058
-6.75235
-4.98986
-2.13238
-1.2759
-1.95734
-6.43608
-5.11496
-2.49651
-3.20541
-1.68241
-6.46415
-4.40355
-1.80943
-5.43363
-0.631691
-6.15434
-4.33081
-2.1446
-1.9927
-4.33297
-1.93655
-0.389376
-4.793
-1.43489
-8.38398
-4.35216
-1.69286
-3.70228
-1.97743
-5.27215
-6.08964
-5.4314
-4.47904
-2.30409
-1.90481
-0.0453468
-0.86653
6.94508
-5.8417
-4.38488
-13.3539
-6.53455
-5.5222
-13.8697
-6.65292
-4.45226
-2.08406
-5.97855
-0.866388
-1.70218
-0.0355706
-0.747238
0.114781
-0.517641
17.1332
3.85514
2.23061
2.26614
-6.61105
-7.34954
-5.72284
-12.8916
-0.724955
-4.20684
-1.83642
-0.67303
0.209423
-1.51174
-0.116917
2.83192
1.59915
-5.89997
-6.81946
-5.58183
-4.21724
-1.99914
-1.74478
-0.125624
-0.778767
-1.42939
-5.33491
-5.748
-5.29609
-4.40181
-2.35365
-2.05354
0.019952
-6.45087
-0.863137
-2.26951
-0.647026
-1.55036
-5.27104
-1.4502
-4.2367
-5.72198
-5.14659
-5.3996
-5.64227
-4.27972
-2.43564
-4.95224
-3.31964
-2.13911
-0.037666
-2.54635
-0.342826
-1.63594
-0.522999
0.237126
-0.168289
-1.33362
-4.34284
-1.24201
-4.57016
-5.45061
-5.67989
-6.06239
-6.33347
-5.00997
-3.55293
-5.59207
-3.89244
-2.73972
-0.429365
-2.91553
-0.393828
-4.28724
-0.449685
0.517435
0.29061
1.80161
1.10448
-0.97775
-5.21747
-1.09301
-3.67492
-0.984768
-4.72649
-5.27278
-6.51081
-5.83146
-6.65662
-6.81397
-7.96335
-7.73768
-3.29795
-3.98134
-2.18105
-5.28991
-3.98616
-5.78687
-4.21514
-1.6171
-0.27326
-2.52735
-0.955864
-2.48633
-0.94711
-0.181703
3.22054
7.24047
3.36751
2.54469
6.31538
8.16151
-6.37131
-0.793065
-13.7668
-0.900978
-5.71678
-3.42566
-16.6778
-6.1224
-14.0591
-8.42521
-8.24452
-7.45444
-17.5072
-10.676
-2.1404
-2.88766
-1.13185
-4.95135
-3.73187
-3.59215
-0.82567
-0.262204
-0.809068
-0.180936
-2.16349
-0.774636
0.0103925
-0.289672
12.3853
-0.1763
4.26215
8.4448
17.5865
6.57599
5.88517
1.99304
-6.15534
8.61587
2.55959
-6.29612
-7.70548
-6.19613
-11.187
-7.88631
-8.30117
-0.838922
-3.83533
-1.99293
-13.3942
-2.53527
-6.19838
-3.39422
-0.0378903
-1.46784
-0.475588
-1.04905
-0.452276
-2.47927
-0.970915
2.87247
2.86538
5.51857
4.44188
4.86997
4.0184
-5.77723
2.15242
-3.34321
1.13092
-4.4818
1.11948
-2.76354
-6.70249
-4.02306
-4.14199
-8.23127
-8.29902
-5.56956
-5.88002
-2.31572
-3.6887
-2.48467
-5.62379
-3.74267
-5.07078
-3.73642
-0.388508
-2.27727
-0.109908
-2.42765
-0.911667
-2.25548
-0.955766
5.15048
4.28911
4.48361
4.57607
-2.83147
1.9879
-1.23161
2.96697
-1.633
-3.86659
-4.21769
-5.44416
-3.37169
-4.67442
-2.50573
-4.8977
-3.80123
-4.37705
-3.1228
-0.0848511
-2.34929
-0.936439
-2.27018
-0.441153
4.20434
4.45957
2.65424
4.01114
2.9624
-1.54134
3.07958
-1.68561
-3.15651
-4.31949
-3.18301
-3.50481
-3.95211
-2.88109
-2.62904
-2.28268
-2.25018
-0.371617
-1.67507
-0.363436
1.98084
3.91867
3.00526
-2.52551
-3.23188
-3.64968
-3.07769
-2.17648
-1.79976
-0.228742
1.19904
21.6403
-1.40573
-0.531903
-0.499241
0.00504121
-4.63384
-0.589259
2.51232
6.58551
1.84798
1.97745
-1.2768
-5.84436
-4.86051
-1.71804
-7.64095
-6.72915
-5.81711
-10.5339
-10.0075
-8.84472
-4.2154
-2.43025
0.324125
-1.54867
-4.78589
-2.71206
-1.96696
-0.283994
-1.00334
-0.195528
-1.52816
-0.532661
-0.291
-0.249915
-0.0534753
1.68793
1.58105
2.35673
1.19749
-5.29264
-1.70573
-4.12349
-1.80916
-6.30923
-1.88319
-5.59864
-6.04268
-6.25219
-6.59628
-8.94766
-8.64936
-8.29108
-8.10136
-2.71256
-5.39807
-4.0947
-6.15232
-4.13133
-6.38422
-4.76983
-0.369865
-2.34688
-0.899172
-2.30177
-0.94973
-2.8008
-1.07978
-6.46369
-3.14648
-17.1766
-1.16522
-8.9932
3.36654
-23.0922
-8.53406
-17.8801
-11.3079
-12.2655
-10.6787
-23.5878
-17.2543
2.57659
-7.10565
6.15068
2.7661
-11.2994
-12.2094
-8.59981
-9.29439
-18.5892
-13.3113
-12.2293
5.77023
4.76505
5.03997
9.94301
7.20308
8.64581
7.40068
5.12044
8.34994
7.6009
9.62052
11.1199
-2.43217
2.80432
-3.68828
6.27267
-10.2043
-4.3936
-7.11275
-6.99959
-11.0003
-7.07142
-2.07352
-4.69989
-2.94148
-3.06534
-2.32955
-0.278837
-1.65186
-0.645079
-1.21642
-0.322242
9.57645
14.1217
8.56541
-12.0561
5.93841
-5.00338
-12.5238
-8.42781
-6.32468
-4.83231
-6.34487
-0.499269
-3.2363
-0.573101
-0.4285
-0.142611
-0.375641
0.0945195
-1.82433
-0.309203
-1.66751
-5.45104
-6.58424
-5.73679
-4.26926
-2.4092
-1.69973
-0.204185
2.84228
8.72073
-0.279489
0.331419
3.35984
3.04297
30.048
-1.88728
-5.63546
-0.336176
-10.0698
-27.5296
-7.6656
-6.94596
-11.2639
-7.84953
1.41983
-1.09132
-3.95781
-2.29882
-3.82252
-2.28227
-0.69581
-0.203964
-1.30991
-0.453687
-1.45681
-0.73076
-0.38133
-10.3979
0.700062
-12.7956
2.17261
-20.8798
-11.5163
-9.57272
-13.8578
-8.1237
-20.058
-14.1624
-12.5728
3.18801
-24.8134
-7.08595
-21.3346
-2.51978
-43.168
-13.9883
-25.0312
-19.1648
-23.2153
-19.9516
-37.2746
-31.2739
2.16077
-14.5851
12.2192
-1.85108
-28.9676
-20.2281
-16.331
-15.0653
-32.4109
-30.2057
-23.6267
-6.33108
7.32961
-11.3012
8.37255
-13.8003
11.1695
-11.8633
-8.52657
-11.8837
-7.97553
-16.4585
-14.076
-12.9527
-10.0987
16.2787
3.6866
7.88281
12.4376
12.8627
9.43613
9.19424
5.74025
-4.46035
8.58827
-7.55779
5.11598
-1.39661
-8.78298
-6.71546
-5.20062
-10.903
-9.24549
-5.83779
-6.301
-0.728511
-2.68857
-0.86049
-5.53589
-1.90442
-4.16132
-2.30712
-0.0451602
-0.573857
-0.0977776
-1.14924
-0.518845
-1.09302
-0.491161
7.45534
7.63882
7.41911
6.02384
-3.82891
5.41865
-1.08617
5.356
0.208094
-4.65714
-3.18826
-4.47182
-0.74773
-2.36784
-0.715482
-3.93399
-1.92529
-1.84886
-1.46452
-0.0163054
-1.25532
-0.212056
-1.25459
-0.26574
-4.43868
-1.43566
-1.79252
-4.42371
-5.26352
-4.98027
-4.15381
-2.56902
-1.90605
-0.288633
-1.06052
-0.276327
-2.71972
-1.20764
0.197353
-0.282593
-2.03018
-4.1915
-1.76862
-4.65273
-2.21967
-4.76454
-6.16448
-6.0287
-5.44732
-5.21475
-6.60492
-6.41173
-4.46096
-3.29279
-4.53748
-2.96448
-4.98851
-3.71414
-2.03603
-0.796429
-2.09942
-0.260277
-2.11178
-0.775924
-12.737
-0.762375
-24.2332
-1.78325
-10.8379
2.04849
-23.6532
-10.3494
-21.3367
-17.9145
-14.0148
-12.5167
-24.0885
-17.8083
-21.6859
-4.20079
-18.3993
4.97568
-30.9492
-4.76387
-37.9518
-14.1727
-19.1852
-17.1121
-29.686
-18.1263
-41.0158
-29.4015
-40.0785
-3.40072
-49.3145
-120.461
-119.984
-120.745
-96.6412
-27.4951
-42.0871
-33.7625
-62.6548
-37.8448
-79.1601
-35.4788
-11.2732
-41.1571
-89.1663
-128.594
-119.12
-34.6077
-40.2455
-30.1296
-35.4537
-87.6841
-42.5377
-16.2776
7.75243
-17.0266
1.58092
-45.7435
49.7365
-21.4259
-19.7988
-18.3098
-49.2527
-37.6225
-36.7006
-18.2003
9.53645
-11.1457
19.9536
-37.7877
8.77625
-10.8738
-16.1391
-13.9526
-11.8974
-35.3059
-28.8055
-14.4471
-14.0881
8.04253
1.1002
6.43964
10.0627
8.34105
7.4802
7.16557
0.911452
5.2737
0.854286
4.96724
0.49729
5.24576
2.23151
-3.92552
-1.08766
-2.49844
-3.94585
-4.70019
-1.86375
-3.1571
-2.51486
-2.05537
-1.53278
-4.25769
-3.21589
-3.2254
-2.70503
-0.781051
-1.28333
-0.311649
-2.0899
-1.02179
-1.92118
-1.02936
5.90853
6.08154
6.42673
0.602179
5.39395
1.21386
-2.13457
-1.00525
-2.6062
-1.44935
-2.58447
-1.90366
-0.150524
-1.62853
-0.402515
-2.41909
-5.53391
-5.87438
-4.16889
-3.58289
-2.42964
-2.33442
0.411202
-3.24191
-1.3908
-6.91242
-1.44663
-0.0724309
-0.997555
-1.82413
-4.44853
-2.10711
-5.4142
-2.30316
-4.41753
-5.311
-5.0954
-5.7348
-4.23963
-6.0558
-5.94868
-4.36074
-2.88753
-3.76046
-2.48988
-4.5571
-3.38132
-2.13477
-0.291598
-2.3383
0.0916728
-2.22516
-0.833836
-35.9064
-10.0018
-51.1079
-40.2218
-58.5852
-122.705
-115.763
-22.4569
-50.59
-42.1323
-50.7472
-31.7679
-95.0764
-42.6293
-62.4763
-145.044
-122.109
-6.36265
-144.629
-137.921
-39.4026
-78.1404
-48.3786
-43.4863
-104.976
-45.2256
-143.069
-137.709
-140.569
-124.524
434.944
437.347
-59.3662
-113.406
-44.9099
-110.457
-45.9103
436.667
-19.3945
-33.1991
-18.7096
-34.1268
-14.6723
-15.2413
-2.83988
-9.96344
-3.24317
-10.3255
-2.74868
-11.81
-1.1659
-143.474
136.559
-227.214
337.061
430.461
346.737
425.729
-140.141
-213.454
-101.14
436.431
437.237
433.575
436.935
-42.4566
-82.301
-34.3837
436.66
389.27
436.677
367.51
-21.4802
-29.3744
-22.0734
419.083
-16.0363
445.78
-4.26931
-18.6987
-5.88919
-13.3248
-1.52919
-4.56467
-159.747
120.058
-192.098
347.057
425.522
339.443
424.603
-202.039
-140.6
433.064
435.992
433.284
435.85
-34.3004
-102.338
-44.2712
435.701
405.271
435.502
360.28
-21.6608
-35.6728
-23.956
430.249
407.793
-18.5447
-6.50568
-16.7681
-6.66138
-3.85112
-16.526
-5.10726
-156.521
-119.42
-140.917
433.832
435.993
430.225
-49.4568
-119.908
-63.4532
435.567
386.741
-50.8682
-22.9211
-38.0213
-23.2328
418.602
-19.2003
-43.0221
-18.861
-5.1601
-11.5788
-3.45488
-17.2658
-3.90837
-14.3479
-1.9164
-129.846
-97.4958
-127.513
-128.104
-91.9309
-160.272
-65.8467
-93.9804
-60.401
-112.322
-53.2058
-147.731
-53.735
35.0199
50.0712
40.0994
101.822
-7.77666
70.1972
22.3776
-69.739
23.8949
-48.0385
-29.367
-85.0947
-45.7076
-43.8477
-40.0874
-79.1182
-49.7766
-21.256
-34.4879
-17.9435
-49.8428
-26.674
-38.2297
-19.442
-31.6773
5.84296
-12.4561
-11.1426
-44.694
0.126561
-24.7776
-30.8099
-19.8168
-20.1528
-50.6105
-41.2486
-29.5724
-26.4328
6.61732
9.30223
7.81756
6.40441
6.95627
2.48835
5.10753
1.50769
5.50805
0.34768
-2.71872
-2.43885
-3.49542
-1.43126
-2.85075
-2.40905
-3.29538
-2.80888
-2.47572
-1.61876
-0.954905
-1.79383
-0.786734
-1.23212
-0.430471
5.25117
6.47728
5.67322
-0.545175
-1.38238
-2.0762
-1.38689
-1.2258
-1.12233
-0.108624
-7.5927
-1.94547
-0.134546
2.54465
-2.62014
-5.98704
-2.21506
-9.84863
-6.26053
-3.71728
-10.3119
-5.78262
-3.28628
-1.69936
-2.59626
-1.564
-2.78496
0.187003
-1.17402
-0.201032
-0.788387
0.936728
0.0237529
1.1705
1.04831
3.00922
1.15403
-6.01141
-2.71617
-5.64508
-3.01437
-8.59886
-3.20012
-7.85573
-5.11221
-7.42421
-7.15405
-9.40352
-7.52908
-9.29797
-8.24337
-2.33806
-5.21882
-3.67961
-3.72952
-2.49886
-5.0851
-3.66691
-0.2583
-2.30262
-0.804133
-1.39007
-0.412878
-2.24342
-0.832946
-113.821
-192.248
-125.437
-142.585
-147.159
438.887
-40.2698
-96.5501
-44.0267
-87.8131
-48.9101
-34.74
-122.195
-124.877
438.982
439.194
433.145
437.003
-41.5106
-108.749
-40.7849
439.054
-32.7725
434.999
373.149
-14.1517
-34.13
-13.5949
-27.4613
-11.1668
423.663
306.981
-2.54067
-9.76175
-1.06348
-8.31558
-0.604004
302.202
434.947
437.322
433.839
436.05
430.767
434.174
-42.1525
436.416
461.096
433.511
404.094
433.26
414.358
-13.5818
426.906
404.361
302.761
417.69
333.667
-0.846499
-10.624
-0.360137
304.449
9.73912
263.642
5.49854
436.764
431.942
434.878
428.119
433.035
427.086
431.569
403.839
436.356
347.88
432.828
412.053
432.227
441.354
453.633
350.971
442.635
300.444
444.274
238.539
-0.564499
328.245
-3.25539
236.466
2.5329
296.045
4.19251
434.35
431.79
435.284
426.302
430.953
425.557
430.624
407.991
434.768
393.223
432.173
433.33
430.46
475.243
318.716
413.684
319.308
423.362
290.572
368.998
285.113
-1.02728
-3.9794
289.185
288.195
2.2254
435.748
430.941
435.225
426.835
431.387
429.108
432.522
376.875
434.619
-48.5863
431.005
415.876
430.548
378.522
-40.818
-16.8023
349.572
211.893
411.069
267.531
-3.21271
-14.3055
-2.08349
227.208
2.92132
302.295
-6.26457
435.323
-92.155
426.747
433.086
432.577
434.506
-49.6713
-52.3764
432.616
552.381
433.724
411.664
-16.6118
-47.4414
-17.4536
405.5
313.446
395.117
-14.0616
-3.24735
-13.3048
-4.55173
294.389
-8.70568
-11.7894
-2.13096
-165.324
-153.419
429.934
434.808
-84.0332
-137.601
-103.147
-63.8644
434.278
411.553
-114.739
-60.4699
-22.0885
-34.1099
-20.5735
-15.0457
-38.6801
-27.2041
7.07371
10.2525
9.78062
-0.844398
5.99243
-5.42513
-2.95229
-6.94306
-4.85815
-1.45263
-2.48049
-0.869229
-0.0650607
-0.612362
-0.259
1.5556
3.48452
2.46968
4.12201
-1.47209
-11.8571
1.41162
-10.7201
-11.7006
-4.86687
-11.6354
-8.29153
-0.712078
-1.16851
-4.52589
-1.91703
-0.730878
-0.0698129
-1.27151
-0.322555
4.61209
5.40608
2.8841
5.20361
5.12372
7.7835
7.79181
-11.3637
-1.72417
-12.5166
1.48718
-11.1237
0.44627
-18.5401
-5.90353
-13.012
-9.61498
-12.3592
-9.56624
-19.6326
-6.875
-1.73317
-7.11905
-2.2367
-6.66068
-1.90063
-2.25055
-2.63238
-13.3012
-4.87019
-17.1605
-1.38674
-19.9038
-6.69694
-11.1595
-18.7444
-16.3755
-20.425
-7.90494
-28.2213
-20.9093
-20.4661
-34.2349
-7.03049
-39.1569
-28.91
-70.8261
-18.7195
-33.4602
-26.0457
-35.6078
-30.0051
-64.0135
-37.3129
-75.5728
-180.847
-133.245
-67.2729
-88.134
-173.045
-130.776
-34.6296
-80.3758
-47.8751
-72.3319
-44.8069
-91.1375
-37.619
-140.971
438.791
439.542
-117.446
434.315
438.15
-41.3554
439.143
-33.3213
-96.1232
-33.3816
437.453
460.172
-13.9065
-27.3247
-11.2811
-27.1518
-13.6916
406.214
288.572
-1.85827
-9.38213
-0.664578
-10.2173
-1.57371
299.945
-2.58433
436.119
416.269
436.966
369.28
436.637
384.9
-10.9822
432.557
302.763
349.24
263.35
374.392
146.134
-0.125158
292.324
296.379
-9.68453
276.603
-0.255906
422.809
433.522
356.367
436.728
418.637
433.826
455.028
297.744
416.682
289.691
423.558
261.994
438.408
223.616
1.51564
324.039
4.33682
280.301
-0.984132
215.669
-73.2959
410.122
432.139
439.322
432.653
556.981
431.649
623.452
310.19
443.8
217.801
423.073
229.062
435.45
278.201
0.544487
291.184
4.50953
97.8888
274.155
-28.9012
429.214
430.386
413.326
432.652
470.584
432.187
428.014
263.219
360.894
296.217
430.273
2.02318
437.759
190.109
260.482
-1.60282
194.014
-65.9472
374.538
431.433
442.478
431.776
446.06
431.534
421.266
267.751
420.792
286.341
452.662
230.742
378.358
237.178
2.42654
325.058
-1.66126
171.51
269.521
-1.04538
411.792
433.514
409.585
431.084
206.925
429.261
410.57
279.988
418.367
400.755
168.863
431.46
274.607
-13.9563
-0.906082
268.536
1.85562
244.655
1.86523
434.777
-57.9686
-136.366
430.331
430.665
428.111
433.827
421.907
-117.197
-58.1515
429.934
410.3
432.779
-14.1328
-42.692
-20.5594
432.844
275.637
-42.65
-17.8598
-1.57852
-14.9032
-1.90396
303.282
-4.25592
-15.2737
-3.91842
-151.188
-132.08
-158.375
426.949
-119.105
-164.393
-68.1911
-108.442
-67.6361
-51.0081
-118.106
-61.2553
-25.3609
-38.1577
-23.0201
-43.3236
-20.4577
-36.6839
-23.9568
-51.7282
1.93696
-22.7573
-72.3359
-111.018
12.5625
-47.5984
-40.9176
-29.7718
-27.5361
-88.3073
-47.0169
-44.044
-40.9482
-12.6034
6.51591
-9.13185
19.9381
-41.5861
13.3922
-18.9095
-11.7232
-11.3493
-39.1982
-34.6961
-21.6392
-8.13747
9.64699
-6.53655
8.59388
-23.3242
10.7226
-9.29308
-10.0051
-7.94457
-6.73313
-20.8372
-17.4436
-11.9757
-9.46722
12.2474
12.2518
12.6483
4.78213
8.41193
-8.15929
9.45012
-6.12515
6.61819
-3.13355
-6.35328
-8.55904
-7.87298
-5.06132
-4.09034
-0.442006
-5.62775
-0.854766
-1.98317
-0.971338
-0.211259
-0.38111
-0.230646
-0.864063
-0.240258
7.9283
6.44652
-2.78328
-3.75042
-3.57488
-2.3359
-0.818507
-0.800934
-0.0999371
1.76331
1.82475
-1.00387
0.188981
0.115905
-1.86988
-6.32526
-1.23159
-4.36908
-1.6112
-4.68816
-8.25826
-7.25132
-4.85916
-3.94172
-7.06322
-6.5458
-3.76608
-2.1722
-3.23523
-2.4693
-4.33528
-3.06134
-1.19273
-0.551235
-2.22158
0.298651
-1.68576
-0.580016
-10.1853
0.876082
-13.9153
-1.05188
-5.27529
-1.28075
-7.64127
-9.63331
-15.0805
-9.73309
-8.76348
-8.6721
-11.4626
-10.7659
-16.3303
-0.664918
-10.8289
-4.22388
-17.5922
-11.262
-15.8414
-14.6579
-22.3116
-18.6967
-38.108
-73.6807
-9.74207
-31.9012
-78.3717
-91.4529
-67.6259
-36.1922
-32.0388
-23.4668
-71.8332
-37.9938
-33.8448
234.954
-170.084
110.363
-111.763
311.909
434.034
-83.6796
-187.806
-120.907
-164.227
-120.602
437.507
439.809
-39.4275
-96.7656
-32.7449
-91.9132
-42.6746
439.236
-19.533
-23.8184
-14.3784
-32.6056
-19.1999
-13.9366
-3.32244
-10.5872
-3.11256
-8.86796
-2.8999
-9.70406
-1.13268
-114.373
436.112
437.215
437.382
439.648
433.796
436.637
-31.5901
436.928
401.19
438.593
422.764
435.495
420.744
-13.3376
404.249
286.261
431.566
-10.9009
427.376
210.658
-2.29384
288.391
12.0487
-8.89946
-1.115
264.191
-0.332236
559.083
435.295
425.978
435.593
356.162
435.077
358.717
261.447
410.98
251.988
416.397
272.292
445.053
123.427
2.092
309.937
301.096
1.70708
259.218
-95.2207
382.471
436.86
416.448
435.388
439.102
429.534
499.111
194.536
439.705
249.294
437.286
185.438
406.665
164.003
-0.283718
367.518
-34.3995
215.716
335.503
584.886
430.693
598.11
426.296
434.323
419.962
377.114
194.585
435.794
211.566
342.004
165.3
339.494
257.772
-44.5288
232.365
-23.0114
228.654
252.395
441.901
418.826
414.678
418.008
414.692
419.52
414.988
417.544
429.122
423.124
429.497
421.71
418.717
421.543
422.774
479.433
431.175
501.711
419.024
375.254
418.099
355.166
174.402
453.542
69.9276
340.846
257.366
277.833
254.833
173.237
250.241
405.99
254.31
624.466
458.114
433.299
206.643
423.638
390.716
428.842
440.222
207.473
394.458
225.036
268.422
196.662
443.026
244.388
396.958
2.20995
222.772
590.456
264.929
382.877
428.486
412.226
429.582
561.487
428.321
398.292
202.211
427.667
311.251
438.574
238.447
422.475
188.743
-21.2378
268.981
-4.80454
316.036
224.546
-0.710017
429.946
430.466
433.587
424.751
428.405
430.724
432.335
439.086
432.713
427.859
443.317
431.582
357.592
288.614
-17.252
423.744
218.21
340.284
281.718
-5.8273
-14.9893
-5.31579
246.685
-15.4503
281.958
-9.38077
415.496
165.999
-42.8136
328.833
419.529
180.488
-109.646
433.795
-163.246
-165.88
432.527
433.651
-144.922
-163.439
-45.3741
-115.908
-48.5214
432.425
327.22
-120.478
-55.3087
-19.3586
-41.0586
-23.8801
387.271
289.084
-43.6373
-21.0741
-3.92061
-14.5337
-5.75979
-8.36175
-14.7779
-6.12379
-121.828
33.7447
-136.408
-159.077
-0.6158
-56.9446
-49.3318
-40.5262
-116.241
-58.0262
-58.063
-41.2862
12.2411
-21.1441
7.48872
-35.1305
4.7613
-11.3727
-20.5508
-19.8914
-39.2636
-28.2273
-18.4432
-17.6801
-13.496
7.52633
-7.08299
6.1626
-5.22091
5.89314
-1.91422
-14.8225
-9.46728
-9.02758
-11.6428
-12.448
-7.90705
-8.96479
10.0531
4.81661
8.12522
10.8161
9.19323
6.64676
6.95579
-2.42487
5.59965
-2.31874
5.15914
-0.470172
5.30405
0.165851
-6.69377
-4.02653
-3.67588
-4.99695
-5.90093
-1.59597
-3.04383
-2.66289
-2.58379
-1.80253
-4.67885
-3.4732
-2.73065
-2.39665
-0.757745
-1.53818
-0.313268
-2.06703
-0.704741
-2.01161
-0.375944
7.47779
3.84871
6.03316
-2.21292
5.21437
0.2745
-3.18266
-0.429944
-2.29395
-1.32045
-2.27288
-2.43343
-0.118752
-2.19471
-0.199628
-2.86881
-4.14392
-4.6745
-4.27505
-3.01895
-2.52594
0.243229
-1.22657
0.418643
-0.101706
-7.84418
-1.79998
0.520738
-0.130264
-4.06711
-1.41001
-4.10549
-1.92655
-3.09624
-1.37908
-3.86387
-4.01179
-6.60438
-6.00265
-4.2426
-5.00553
-6.4924
-6.07269
-2.57083
-4.55515
-3.51629
-4.47715
-3.16209
-4.80523
-3.79762
0.22439
-2.3453
-0.952041
-2.31041
-0.264136
-2.55961
-1.04259
-147.294
437.451
439.683
-96.509
-141.581
438.951
439.227
-40.4611
439.016
-112.679
-45.8185
438.966
431.217
-17.0687
-12.2788
-34.054
-14.3411
437.087
-10.8075
-3.22053
-9.12627
-1.01625
-7.81723
-2.03399
-8.8495
-0.628956
439.423
432.444