/*--------------------------------*- C++ -*----------------------------------*\
| =========                 |                                                 |
| \\      /  F ield         | OpenFOAM: The Open Source CFD Toolbox           |
|  \\    /   O peration     | Version:  4.0                                   |
|   \\  /    A nd           | Web:      www.OpenFOAM.org                      |
|    \\/     M anipulation  |                                                 |
\*---------------------------------------------------------------------------*/
FoamFile
{
    version     2.0;
    format      ascii;
    class       volScalarField;
    location    "67";
    object      p;
}
// * * * * * * * * * * * * * * * * * * * * * * * * * * * * * * * * * * * * * //

dimensions      [0 2 -2 0 0 0 0];

internalField   nonuniform List<scalar> 
146404
(
-8.05746
-3.76193
-11.8243
-7.53885
-13.2447
-8.16217
-4.13745
-4.00397
-7.43925
-21.4688
-2.43414
-8.53007
-5.13847
-11.8023
-7.10974
-3.54493
-8.46155
-6.98384
-4.33305
-10.7117
-8.69053
-11.8017
-8.46208
-4.1289
-6.63102
-8.63101
-12.3074
-10.2246
-4.51313
-2.77636
-8.97845
-19.4952
-13.2377
-4.06503
-1.95068
-8.03702
-16.6152
-11.0983
-4.21156
3.22801
-1.63863
-21.1105
-4.11395
2.02109
-7.00717
-16.5552
-11.3331
-4.48614
0.124901
-5.40586
-11.6499
-10.323
-5.015
-1.21811
-4.14841
-9.80913
-8.8409
-4.19385
-3.31453
-3.54968
-8.76513
-7.02108
-3.75953
-4.05231
-8.19226
-3.02369
-3.33097
-9.24026
-17.8134
-11.7427
-5.47086
1.36691
-9.84506
-24.6734
-18.4447
-6.25289
3.82508
-12.6817
-34.2247
-24.7405
-7.36011
6.2455
-8.88638
-27.1189
-18.8712
-8.8131
13.3314
-7.71048
-34.8479
-9.23474
10.7404
-9.05745
-28.1711
-26.0139
-10.091
12.8241
-6.99332
-28.2221
-25.3231
-10.5169
7.4669
-2.75687
-17.2114
-16.8215
-7.29656
5.25317
-4.62862
-14.472
-9.52229
-4.89531
5.53273
-4.42773
-11.7712
-2.24171
1.63027
-8.1918
-4.66516
-2.52372
-8.84867
-11.512
-15.4035
-9.72325
-3.65766
-2.12234
-10.476
-23.0303
-12.0125
-4.78394
6.21875
-3.20625
-29.3345
-11.4741
-8.1078
11.9056
-12.7963
-34.3413
-28.2462
-9.41014
21.4326
-32.8577
-54.5346
-49.09
-10.1043
35.5878
-33.6929
-69.9073
-42.2871
-10.6093
47.0382
-0.0624213
-79.9257
-11.5855
37.2095
-24.5695
-72.0429
-54.6034
-14.8332
27.4221
-22.2072
-58.2327
-56.4688
-16.3973
23.476
-5.42051
-34.8573
-39.5174
-14.0298
17.8653
3.33836
-27.7791
-14.6746
-9.47785
9.83947
1.30408
-14.0823
-10.8482
-5.76698
4.09598
0.932124
-6.51419
-6.74146
-3.85987
1.69839
-3.26029
-4.54051
-3.35392
-10.6245
-11.636
-14.0159
-10.1478
-4.33001
-4.47348
-12.6091
-24.8958
-13.9584
-4.4653
1.74377
-14.1546
-32.4746
-22.3805
-8.01687
23.8037
-11.6551
-57.6667
-26.655
-11.6854
55.1379
-24.4326
-94.9603
-95.1267
-13.5134
97.7055
-87.0994
-158.67
-120.306
-17.7523
113.439
-104.926
-185.914
-124.406
-21.7246
143.363
-94.3148
-133.775
-25.5804
118.685
-105.091
-170.326
-149.696
-38.5662
95.2134
-77.5444
-130.297
-163.127
-43.0633
59.8097
-7.20972
-91.6738
-169.979
-30.2868
35.7333
10.276
-48.8366
-51.5467
-17.7427
17.5025
2.00919
-20.3608
-21.8803
-9.27121
10.1149
1.1187
-10.6473
-11.2107
-4.92664
3.81989
2.45013
-4.97949
-6.80037
-3.75852
-13.3058
-11.5361
-14.3978
-8.82471
-4.0799
-5.40342
-13.7346
-18.8324
-14.1643
-4.83509
-0.957332
-12.8691
-38.8677
-21.1674
-6.42833
13.3013
-28.4026
-94.3764
-36.5503
-8.0332
58.9917
-97.6624
-184.588
-95.0855
-13.4556
139.512
-91.9661
-159.132
-160.138
-14.3227
308.348
434.439
-111.739
-10.6835
380.493
433.069
434.322
409.257
383.838
429.898
433.746
427.898
306.725
370.643
429.274
432.699
420.991
302.881
427.53
-136.589
-34.9219
174.895
-171.89
-59.4937
68.8756
-32.4575
-88.2403
-128.571
-33.357
27.1743
-1.83463
-42.8627
-51.1891
-15.6835
15.8133
6.67771
-18.1492
-24.256
-7.87678
9.25458
1.54839
-8.56679
-9.09696
-5.15777
2.33483
1.83455
-5.42872
-4.81122
-3.0396
-4.88887
-10.5837
-21.0258
-7.04445
-3.13456
-1.74202
-13.2683
-25.2695
-14.3138
-4.64749
6.32982
-15.6936
-44.0152
-27.2568
-8.95331
38.4365
-77.3702
-131.325
-55.4002
-9.73455
129.265
-108.987
-228.826
-116.177
-10.4294
373.139
436.134
437.07
-7.70366
411.683
429.426
433.117
404.826
304.105
412.878
425.952
430.596
436.386
331.27
411.51
424.416
430.701
423.303
283.429
407.672
424.031
428.889
414.788
332.567
389
424.491
429.736
397.741
294.628
345.302
430.111
431.575
422.682
-45.8616
171.79
-61.8015
-106.398
-145.212
-64.9969
52.1088
-17.3512
-81.5547
-101.979
-22.8757
26.4863
6.54438
-28.1886
-29.7601
-10.227
14.3099
4.82485
-16.1393
-13.044
-4.88456
8.4639
2.89884
-12.5716
-3.51844
-2.86877
-3.84168
-8.88443
-17.6864
-9.86119
-4.48365
3.7335
-3.9179
-26.9815
-12.7296
-6.48817
24.685
-33.0233
-11.6184
82.3846
-81.8726
-167.653
-76.8612
-13.4784
303.142
-203.024
-102.167
-6.56135
412.842
430.488
435.263
390.912
274.934
416.114
426.813
434.322
378.224
262.136
414.123
423.071
432.96
430.038
333.54
412.176
420.244
428.829
430.235
212.464
411.552
421.269
430.635
453.043
312.519
407.3
422.238
430.063
349.528
297.429
385.244
425.065
426.446
427.871
314.29
302.311
427.072
431.259
-149.079
-48.0484
93.807
-27.1319
-118.025
-166.09
-25.3418
39.1174
75.3851
-112.118
-13.7497
17.9657
10.4307
-22.1605
-15.3181
-5.94848
8.51023
2.20832
-9.94911
-7.06502
-4.12051
3.35372
-5.98008
-4.47301
-2.64364
-7.51062
-10.5413
-8.09787
-4.47132
-1.86419
-8.36403
-19.1689
-12.5961
-4.25924
5.25196
-12.2309
-36.0661
-23.9236
-7.81257
28.5918
-30.3451
-63.0575
-44.3056
-10.8524
94.7482
-80.2894
-166.161
-96.4059
-26.3505
379.42
436.053
437.041
437.418
-15.078
416.191
429.365
434.171
387.227
260.965
416.067
425.014
432.812
458.024
172.75
413.671
420.092
424.167
295.326
235.645
407.391
416.012
412.764
334.93
256.798
409.411
417.059
419.019
290.983
227.365
410.242
420.673
429.199
438.781
172.963
397.647
421.791
426.774
411.371
257.291
347.143
429.38
432.16
385.036
314.715
128.751
-53.3516
-108.216
-158.384
-55.4456
30.5272
1.92116
-51.4914
-44.2724
-14.8342
16.1994
1.69708
-15.5317
-18.4988
-7.90295
9.18915
3.84834
-7.52071
-10.2762
-5.02793
1.62711
3.15954
-3.14827
-4.98032
-3.50477
-14.1088
-7.28293
-10.2769
-8.1182
-4.209
-1.52089
-8.1163
-18.7773
-12.6226
-4.3501
5.73479
-12.3966
-36.0986
-24.3523
-8.17122
28.8014
-35.8992
-75.5033
-52.1558
-11.1482
116.397
-68.7164
-162.127
-112.177
-24.4681
384.983
436.97
436.664
419.741
416.83
430.177
435.137
440.71
339.374
416.904
425.357
441.253
447.484
198.849
411.556
420.253
417.777
330.867
276.79
407.292
415.614
403.378
336.765
264.662
405.447
416.829
411.491
332.375
260.531
411.405
421.147
427.173
453.833
207.537
400.77
422.453
427.762
440.439
261.364
352.516
428.767
430.9
414.646
317.945
139.102
-58.8833
-117.546
-153.393
-46.8085
27.3635
-4.89193
-46.4539
-47.2368
-15.3913
16.774
2.10387
-18.0258
-20.2455
-8.54793
9.14692
3.82259
-7.81163
-11.1737
-5.21026
1.47797
2.9843
-3.43626
-5.4635
-3.77246
-7.14088
-10.0622
-7.52134
-4.39921
-3.37569
-7.07839
-14.9663
-11.0062
-4.20573
5.18084
-6.56783
-25.9849
-20.4809
-7.3461
32.2047
-14.0869
-57.0671
-49.9854
-11.6682
122.272
-64.5569
-154.259
-146.846
-22.6237
374.038
436.171
437.217
413.159
-15.7909
414.844
430.957
434.883
426.225
277.847
418.042
427.662
437.906
438.515
202.387
415.943
422.539
426.826
324.664
233.401
412.832
419.176
416.887
331.726
270.064
413.713
419.965
423.493
330.312
261.531
410.867
423.884
432.324
438.759
144.365
397.387
425.518
428.934
351.065
265.297
336.177
432.559
432.605
421.41
319.333
107.332
-53.1596
-111.365
-159.616
-19.7587
35.7599
3.42299
-54.0036
-66.0636
-12.2997
16.6047
5.27717
-17.5695
-20.1067
-5.91472
6.87477
2.22737
-8.31215
-9.24872
-4.95007
0.436686
2.4099
-3.69002
-5.61952
-3.67425
-1.47232
-7.22556
-16.5755
-7.71919
-3.58485
6.60573
-5.09928
-26.1109
-7.145
-6.16173
25.173
-17.5374
-9.00632
72.692
-49.0483
-144.682
-132.882
-17.2313
286.02
-146.086
-138.587
-17.7799
396.339
432.63
435.623
437.24
293.127
414.973
429.325
434.881
432.2
226.364
417.179
427.721
432.669
448.318
323.033
416.86
431.169
438.658
441.569
228.433
413.075
425.841
432.454
429.225
259.688
406.461
425.779
430.163
373.398
260.737
382.879
430.209
429.807
372.258
300.609
289.003
430.687
433.06
-148.779
-23.1924
62.1805
-51.5205
-148.415
-163.232
-14.3521
23.7599
-0.307909
-66.3911
-9.14329
11.1288
12.223
-26.139
-19.3349
-5.41097
4.80935
5.09413
-12.6187
-10.1516
-4.20438
1.57361
-7.20148
-5.91912
-3.4132
-4.85629
-9.43025
-18.9469
-8.00598
-3.37764
-0.417477
-10.2211
-19.7208
-13.5496
-5.54143
7.65173
-12.7008
-35.8292
-28.6351
-7.8325
33.8809
-38.4315
-93.4026
-65.9034
-11.3685
125.313
-72.5878
-144.136
-146.225
-24.1277
331.415
438.169
438.669
-23.4291
392.276
433.091
434.867
429.065
265.043
404.501
429.083
433.313
446.274
253.137
406.31
428.53
437.384
357.709
169.904
401.027
428.06
431.796
440.516
263.462
382.765
431.605
430.512
402.422
290.283
334.92
433.342
433.825
340.242
-15.4955
89.8709
-106.384
-192.697
-149.398
-14.286
7.59339
-17.4926
-51.1951
-36.3749
-11.322
2.10405
-9.64535
-35.6447
-27.6523
-7.34713
0.805048
-10.9604
-20.8224
-13.0671
-5.4652
-1.12152
-7.93089
-19.5975
-7.519
-3.52564
-12.9018
-8.73158
-11.9809
-8.07607
-4.15587
-5.06494
-9.19407
-13.7366
-10.7406
-4.78862
0.958524
-8.85669
-23.2806
-16.2371
-5.46245
15.0858
-11.6015
-38.9951
-37.2052
-9.95596
49.2061
-39.9183
-116
-93.2345
-14.5485
120.837
-72.6206
-134.646
-156.157
-33.3411
281.805
434.717
-132.809
-126.425
-26.9324
352.615
434.55
436.67
392.973
360.36
434.717
437.317
401.734
319.053
349.439
434.074
435.483
421.669
280.082
433.761
-133.032
-22.0126
92.4887
-177.322
-14.7574
30.5755
-37.9712
-92.6827
-65.399
-10.9591
1.71249
-10.895
-30.189
-19.9169
-6.30621
-3.42583
-10.8978
-18.7296
-12.8239
-4.90234
-5.06706
-9.33709
-14.7948
-11.0448
-4.87131
-8.42307
-8.5002
-12.6118
-8.62384
-4.17831
-9.04538
-8.33551
-11.0954
-8.55636
-3.77646
-3.62826
-8.11773
-15.6566
-10.6946
-4.22691
3.84687
-8.33081
-24.3626
-19.1317
-6.28658
20.7692
-2.65375
-47.6448
-28.2366
-9.22653
35.9518
-26.4274
-91.3442
-62.6101
-12.0256
52.2649
-70.8196
-150.197
-90.9087
-13.6061
73.2981
-122.944
-163.283
-94.0251
-22.0229
80.9862
-125.686
-128.704
-17.1376
73.2162
-109.342
-178.922
-105.173
-8.80052
45.8628
-65.9947
-143.67
-93.7444
-12.1666
27.3356
-18.4069
-88.2737
-71.188
-9.84565
11.4356
-11.3533
-55.2695
-27.6152
-6.68255
-0.108552
-9.86321
-24.7255
-18.1751
-5.06245
-5.15254
-9.91466
-16.195
-12.2645
-5.28557
-8.43138
-9.07619
-12.7217
-10.3289
-4.98061
-6.51543
-8.66495
-13.4667
-8.71658
-3.86951
-0.103005
-6.92693
-20.5532
-11.2825
-4.54146
3.63968
-7.12341
-27.9456
-11.2905
-5.6231
3.57522
-9.36819
-27.3103
-20.3749
-7.24242
5.13007
-13.8822
-37.8568
-25.4793
-8.25177
19.4339
-18.6555
-50.5233
-39.4167
-9.01939
25.585
-26.929
-46.4518
-8.85119
6.08362
-22.1676
-53.9148
-26.2378
-7.93287
2.35036
-11.3488
-30.7521
-22.4334
-7.9036
4.07297
-10.302
-29.0631
-24.3268
-6.07793
0.893893
-5.56812
-29.8553
-16.6173
-4.40192
-3.53171
-8.27711
-22.1055
-11.1532
-4.07772
-8.17411
-9.48125
-14.1528
-9.84188
-4.76008
-9.00991
-11.4115
-8.63288
-4.91469
-4.33731
-2.09736
-3.06773
-4.47199
-8.57641
-14.9622
-9.70401
-4.58083
-1.76698
-7.68329
-16.8658
-13.2466
-5.68022
-2.04992
-8.82582
-20.3957
-13.0113
-4.30919
1.65263
-8.77689
-23.752
-17.5813
-4.55288
5.42378
-11.0115
-20.1963
-4.33842
-2.15971
-13.286
-25.5968
-12.0309
-4.41225
-1.33607
-9.84634
-17.8223
-12.0366
-4.46344
-4.78317
-10.2226
-17.3528
-12.834
-5.37628
-6.48169
-10.1506
-16.3276
-10.3267
-4.43965
-5.59968
-2.35202
-23.3367
-12.5819
-3.42483
-15.3977
-7.05524
-3.93772
-11.9343
-8.01066
-11.3937
-7.57657
-3.92469
-8.23123
-8.05391
-11.0728
-9.21318
-4.59262
-6.37128
-7.87993
-13.5663
-10.3162
-4.54209
-4.69576
-8.62556
-15.7655
-10.2277
-4.41294
-1.51545
-10.4713
-11.6324
-4.51326
-5.56969
-11.6619
-16.5132
-10.3438
-4.50598
-8.51861
-10.646
-13.5313
-10.4981
-4.57274
-9.90335
-9.97088
-12.9345
-10.2999
-5.02361
-12.0856
-9.60394
-12.6793
-8.78934
-4.36662
-13.2712
-7.79342
-12.5079
-8.62035
-4.14143
-10.5943
-10.5106
-5.90983
-3.25521
-13.813
-9.97477
-14.9048
-8.98585
-4.20003
-8.6879
-4.66877
-11.5612
-12.1011
-9.45264
-8.36713
-4.97421
-4.10332
-0.222266
-9.04308
-1.11784
-12.2151
-12.0474
-20.0939
-12.6078
-9.57712
-20.5377
-10.4073
-8.24116
-4.92439
-10.541
-3.29858
-4.11894
-0.315445
-2.91003
-0.375506
-8.67086
9.15048
-3.47516
-7.18595
-4.63805
-11.6905
-12.0872
-8.38216
-21.9698
-2.98389
-6.7755
-4.08644
-2.65543
-0.302833
-3.4476
-0.289342
-4.21458
-5.08666
-10.9714
-11.454
-8.34523
-6.83624
-4.24007
-3.5688
-0.341086
-8.33647
-8.57351
-11.4227
-11.7296
-9.19545
-8.05058
-4.79264
-3.95226
-0.242778
-14.6011
-8.42659
-9.97197
-8.19976
-8.59855
-11.2236
-8.51826
-10.2269
-11.5005
-9.18679
-11.1133
-9.92571
-8.07479
-4.92053
-8.78095
-5.76505
-4.10781
-0.246959
-4.34959
-0.677854
-9.1931
-7.98227
-7.14317
-7.43897
-8.32216
-10.2147
-8.13712
-10.9988
-11.0894
-10.2552
-12.4068
-11.2062
-9.16578
-6.14464
-10.2157
-6.68334
-4.59827
-0.743525
-4.94089
-0.883917
-12.2746
-7.3239
-6.82181
-6.97006
-5.62251
-6.14103
-7.65101
-11.381
-8.01772
-10.3867
-7.9728
-11.6421
-9.98411
-12.219
-10.2292
-13.164
-12.1352
-14.7833
-13.5762
-5.75176
-8.13225
-5.29265
-9.98272
-7.37767
-10.6995
-7.65358
-3.90353
-0.559163
-4.29769
-1.64835
-4.40226
-1.7166
-7.02762
-4.97437
-0.875319
-4.26162
-4.95219
-1.39674
-0.219639
-12.5076
-8.84217
-20.4479
-8.30204
-12.6375
-13.6002
-23.7094
-10.5297
-20.7971
-11.6953
-14.5295
-12.6438
-24.623
-14.4425
-5.3588
-6.06186
-4.0764
-9.05847
-7.16261
-6.57878
-4.33256
-0.747826
-3.17563
-0.626158
-4.55395
-1.92775
-3.4264
-1.52356
4.21667
-8.13824
-3.36018
0.829184
9.60624
-0.81198
-1.55894
-4.90848
-11.4157
-2.75327
-4.65508
-12.8013
-12.059
-9.06522
-16.5646
-13.7077
-12.1268
-3.18648
-6.62486
-4.47225
-20.4553
-5.39807
-9.37766
-6.06124
-0.53553
-3.4449
-0.610414
-4.00066
-1.5613
-4.40035
-1.91822
-4.31638
-4.46269
-1.52188
-2.84423
-2.20853
-3.34698
-10.9345
-4.6908
-8.21239
-6.17875
-10.8702
-6.01566
-8.84058
-9.42807
-8.76771
-7.89943
-13.6641
-12.5106
-10.9725
-10.2129
-4.63186
-7.05377
-4.69379
-8.65436
-6.18234
-8.90499
-6.75933
-0.624788
-4.07819
-0.346469
-4.27309
-1.80442
-4.43394
-1.87509
-2.10577
-3.28607
-3.22746
-3.33052
-7.81881
-5.07302
-7.28992
-4.19707
-7.4361
-7.68968
-9.72319
-9.89568
-8.77482
-9.12177
-4.77677
-8.47604
-6.51528
-8.48114
-5.99268
-0.337312
-4.03877
-1.65963
-4.60177
-0.830628
-3.60542
-3.33534
-5.31937
-3.12862
-4.07581
-7.16952
-3.46361
-6.83883
-8.46465
-8.63771
-8.16175
-7.78376
-8.05108
-5.60903
-6.77881
-4.86007
-4.39326
-0.775142
-3.89155
-0.634452
-5.95628
-3.03562
-3.36319
-7.6419
-8.29492
-7.61467
-6.92476
-4.4797
-3.90518
-0.351955
-8.4736
11.8434
-5.11293
-3.54095
-2.92692
-0.542269
-12.8941
-8.26498
-6.80752
-2.73158
-6.62032
-6.46211
-8.52244
-11.9255
-11.3058
-9.50707
-14.2844
-12.3262
-10.0251
-13.5812
-15.5862
-13.2712
-7.89774
-4.99254
-2.49377
-4.41494
-8.28439
-5.51591
-3.78151
-0.534054
-3.318
-0.616574
-3.57664
-1.42964
-8.17636
-7.84403
-7.53476
-6.24697
-6.30219
-5.11746
-6.17001
-11.2564
-8.77957
-10.5603
-9.16528
-13.0493
-8.93281
-12.5006
-10.2008
-12.1107
-11.7428
-14.7546
-13.5862
-14.8122
-13.9694
-5.51467
-9.13389
-7.11981
-9.80224
-7.04801
-11.1286
-8.02751
-0.709687
-3.99185
-1.60457
-4.49253
-1.91927
-4.72995
-1.9101
-14.0112
-13.5828
-24.5029
-8.28781
-17.0531
-6.34301
-33.6574
-15.1905
-25.7044
-15.5106
-20.9949
-19.3028
-34.5054
-23.1291
-4.5714
-14.1069
-7.6802
-3.2932
-19.0362
-17.8699
-15.1462
-13.7897
-26.0368
-21.545
-20.4162
-1.85834
-3.02164
-2.62305
2.59366
0.25014
1.51175
0.346355
-2.45252
1.3056
0.447487
2.92671
3.5361
-7.66671
-4.38021
-9.93314
-1.58655
-16.3593
-8.30103
-12.3347
-11.2093
-16.388
-9.59861
-4.75383
-8.06985
-5.6075
-4.93055
-4.79238
-0.731288
-3.84029
-1.70835
-3.26574
-0.691475
3.04534
6.56
0.537473
-18.1715
1.84558
-9.0872
-18.437
-9.89485
-10.1565
-6.63032
-7.72898
-2.3671
-4.81794
-2.44672
-2.15284
-0.54584
-2.18076
-0.306369
-12.2166
-10.5602
-11.1576
-13.2317
-13.787
-10.874
-9.05209
-5.41113
-4.11011
-0.677566
-6.85217
-2.02508
-10.5631
-9.92666
-6.55342
-7.25948
19.2568
-11.438
-13.9924
-11.0076
-19.3079
-37.017
-14.8247
-12.6897
-19.6575
-13.4869
-0.973143
-4.19079
-8.41027
-5.88403
-8.15295
-5.91675
-3.16728
-0.582596
-3.58493
-1.42418
-3.78898
-1.58547
-8.31622
-17.5691
-10.2146
-22.5063
-4.64731
-29.7349
-18.1987
-14.2126
-22.5382
-13.5125
-28.2752
-20.0352
-22.2643
-6.53979
-36.1915
-13.9984
-33.9383
-9.45119
-66.9111
-26.4604
-36.8971
-25.9079
-41.4539
-40.2746
-61.5993
-50.5204
-3.48008
-22.3428
-2.21629
-3.28133
-40.2256
-29.0548
-25.3031
-25.3703
-55.1826
-46.1965
-44.8885
-13.2205
-0.67356
-17.4363
1.64773
-21.5152
7.0367
-16.4827
-13.4777
-17.6205
-9.82377
-24.2571
-21.572
-17.8953
-14.5698
8.5895
-2.0548
3.01385
7.31716
8.0704
4.59133
4.29554
1.69749
-7.91157
4.31129
-11.7507
0.788157
-5.22663
-10.453
-9.84971
-7.36819
-15.2126
-13.3171
-9.28253
-9.17122
-3.29815
-4.50416
-3.03376
-9.26613
-5.47367
-6.59637
-5.0831
-1.12444
-2.34968
-0.599201
-3.88149
-1.67834
-3.7019
-1.7305
2.73061
3.07121
2.70259
1.8987
-7.14052
1.31961
-4.59625
1.52192
-2.59963
-6.33875
-6.634
-7.15196
-3.56957
-5.14655
-3.0183
-6.46373
-4.36247
-4.59083
-3.9999
-0.419101
-3.64213
-0.763967
-3.30519
-0.414376
-14.6074
-11.4393
-11.2464
-12.2597
-12.6245
-10.5726
-9.13564
-5.85997
-4.40141
-0.605714
-11.2566
-10.5335
-12.8029
-11.241
-9.7531
-10.1761
-11.4464
-12.6348
-11.4102
-12.6368
-11.731
-13.7432
-13.608
-12.1913
-12.9087
-11.0934
-14.8074
-13.4064
-9.25265
-6.86551
-9.54166
-6.13627
-10.2472
-7.41314
-4.00626
-1.57537
-4.47933
-0.694888
-4.17649
-1.60699
-23.0818
-7.3259
-34.0829
-12.5526
-22.995
-9.40105
-38.8554
-17.0966
-30.3691
-26.2764
-26.8375
-24.0652
-41.2788
-32.3457
-30.6797
-11.5903
-28.0086
-5.95394
-48.6076
-9.38154
-53.1272
-21.103
-30.3574
-30.2868
-48.904
-35.0379
-62.6047
-57.3819
-56.9458
-7.61983
-78.2656
-103.447
-149.92
-80.6085
-175.682
-66.1121
-71.9067
-64.1712
-153.765
-124.773
-179.443
-133.613
-9.38089
-53.1809
-52.028
-81.4437
-154.87
-69.8887
-61.6482
-62.615
-130.105
-170.575
-147.415
-21.2937
1.68768
-24.1137
-1.63674
-61.7351
48.0705
-40.0411
-28.5115
-29.5235
-76.5246
-129.051
-76.079
-25.831
5.87463
-15.4704
18.7847
-49.4461
6.28924
-14.7937
-22.8925
-18.9633
-17.2144
-45.8794
-56.7785
-19.4532
-24.6863
3.94867
-3.1131
2.27599
6.68681
4.98799
3.97057
3.65782
-2.71862
1.45623
-1.96897
1.98773
-3.11477
2.07539
-1.08746
-7.72522
-3.90283
-5.45385
-8.03425
-9.60893
-5.502
-6.9987
-5.48739
-4.80124
-4.27378
-9.51301
-7.09635
-7.41264
-6.24848
-1.78656
-3.31617
-0.685227
-4.91899
-2.18485
-4.06424
-1.81471
1.97187
2.51535
2.76095
-2.28446
2.10517
-2.01318
-5.00443
-4.36041
-5.98837
-4.0515
-6.27339
-4.55225
-0.450144
-3.72206
-0.77923
-11.7584
-13.7908
-13.8621
-9.82514
-9.30742
-4.99589
-4.59661
-0.0714876
-13.2701
-11.3342
-16.8794
-11.3011
-9.94149
-10.8012
-11.4337
-12.5967
-11.4804
-13.6333
-11.9232
-13.4372
-12.9575
-11.1173
-13.7018
-9.92976
-14.2332
-12.7951
-9.58025
-6.16545
-9.10134
-5.0718
-9.63007
-6.82994
-4.58976
-0.715071
-4.44683
-0.178852
-3.88767
-1.44362
-54.4198
-12.6582
-71.3828
-42.9946
-97.9007
-76.1606
-141.285
-45.3481
-76.9665
-94.6095
-115.036
-103.264
-152.144
-188.096
-81.2883
-89.3004
-103.694
7.8293
-110.177
-123.404
-117.725
-137.281
-165.061
-176.376
-127.726
-135.478
-118.918
-92.3456
-160.258
-127.787
433.044
435.398
-176.256
-181.328
-157.511
-131.77
-138.21
434.652
-52.2843
-114.946
-50.0905
-112.616
-35.4117
-27.4095
-3.63149
-19.6045
-5.56065
-16.8537
-2.40044
-15.5236
-1.1186
-102.915
141.972
-164.931
333.449
428.724
345.544
424.435
-168.974
-130.517
-180.747
434.384
435.456
431.757
434.477
-151.051
-185.131
-134.869
434.688
386.672
434.097
363.461
-50.0861
-118.919
-45.0877
416.8
-24.8419
440.871
-5.99626
-22.8934
-4.43851
-17.5262
-1.0149
0.173907
-114.174
125.265
-123.835
345.688
424.595
338.477
422.972
-117.871
-156.15
431.469
433.839
431.034
433.6
-132.729
-175.384
-166.693
433.577
399.532
433.014
358.68
-49.1191
-139.505
-72.3638
426.404
404.373
-43.0935
-5.13257
-31.7413
-6.59588
1.78721
-28.8473
-0.922641
-152.72
-66.9443
-116.373
431.024
433.71
429.291
-174.711
-138.987
-170.387
433.158
384.149
-147.903
-81.6596
-152.921
-93.4741
415.253
-46.9181
-141.453
-70.8768
-7.36212
-44.9794
-8.2689
-31.3652
-1.73743
-36.0075
-0.87851
-85.8858
-59.1411
-92.3253
-113.84
-89.0802
-103.52
-166.196
-113.787
-159.592
-120.039
-146.844
-102.404
-128.725
35.6782
49.5317
38.3913
104.024
23.4608
72.1392
30.1143
-73.1644
22.818
-64.1688
-11.6079
-72.5442
-151.414
-58.5896
-85.9285
-93.6108
-149.13
-114.159
-85.8068
-71.0385
-109.211
-133.99
-163.227
-118.882
-35.7422
4.05419
-15.0065
-9.92367
-47.8548
-1.84688
-27.398
-65.3281
-27.0704
-37.0986
-80.6194
-118.019
-46.1736
-60.8049
3.16015
6.18796
4.59492
2.88417
3.17443
-0.695959
2.23913
-1.94991
2.05428
-2.70845
-6.35034
-6.42691
-7.66955
-4.54993
-5.70591
-5.41754
-7.66153
-6.0603
-5.13956
-3.96897
-1.6858
-4.0702
-1.79078
-3.1673
-0.663798
1.64542
2.79328
2.2024
-3.27531
-4.30747
-5.22629
-4.37907
-3.5461
-3.13008
-0.316489
-17.4711
-11.8818
-9.48991
-7.6414
-12.0476
-14.2158
-12.5772
-19.197
-14.2247
-9.67102
-18.8566
-10.9974
-8.81615
-4.71322
-6.78625
-4.45487
-5.14497
-0.0864294
-3.45199
-0.564944
-10.9384
-8.87193
-9.83957
-8.19185
-8.9137
-6.46605
-8.61305
-14.4016
-12.5815
-15.1707
-13.2993
-18.017
-13.4614
-17.8203
-11.1486
-16.2908
-14.4418
-17.5436
-13.8523
-18.7493
-16.0658
-5.49281
-10.5744
-7.51093
-7.5344
-5.74333
-10.053
-7.02607
-0.55199
-4.27583
-1.65443
-3.5238
-1.40283
-4.287
-1.73086
-154.235
-107.221
-138.182
-95.4725
-205.149
437.706
-161.91
-167.475
-195.176
-225.556
-173.666
-151.498
-137.873
-126.852
437.31
437.765
431.198
435.356
-176.721
-129.237
-126.772
437.55
-143.005
433.623
374.392
-44.3416
-113.38
-35.478
-112.727
-22.8789
422.384
317.841
-2.8749
-14.7482
0.367343
-8.51691
-0.29303
315.236
432.546
435.706
431.736
434.217
429.019
432.395
-128.034
434.813
459.284
432.407
404.513
431.592
414.217
-29.2758
423.718
405.686
315.319
417.922
345.912
1.05447
-13.5484
0.45377
317.01
18.9456
275.393
8.20083
434.887
430.704
432.58
426.291
431.113
425.42
429.741
401.272
434.083
341.907
431.255
411.635
430.417
440.411
449.577
349.823
437.866
311.634
442.574
247.436
0.370389
327.661
1.47357
244.493
2.25219
304.792
1.04047
431.77
430.026
433.426
424.618
429.116
424.105
428.837
401.925
432.516
390.624
430.403
432.631
428.513
473.123
321.473
410.503
323.902
423.624
299.034
370.413
292.694
1.8153
1.45767
297.657
294.093
6.58814
433.32
429.269
433.172
425.06
429.487
427.22
430.647
372.554
432.539
-147.288
428.98
413.886
428.458
375.87
-137.828
-57.2201
351.6
225.441
409.763
278.117
1.03573
-38.7162
0.803458
238.528
5.85651
312.664
-8.82063
432.963
-94.2889
424.999
431.04
430.445
432.154
-146.674
-113.672
430.5
548.019
431.362
409.59
-61.5132
-91.5876
-94.1817
402.598
320.837
394.582
-66.6777
0.457137
-64.8637
-4.25356
302.483
-14.5929
-45.4705
1.70036
-78.9911
-78.0651
427.97
432.387
-67.4901
-93.825
-100.849
-141.516
431.923
409.086
-102.27
-146.037
-120.28
-160.434
-129.627
-75.2629
-149.988
-123.118
3.29412
6.85978
5.87217
-3.61447
2.09191
-9.31748
-5.69299
-10.5887
-7.25587
-3.54562
-4.32598
-2.9768
-0.635464
-2.8253
-0.65402
-7.50909
-6.72032
-5.5234
-3.89307
-11.9688
-21.5507
-6.01927
-17.2807
-20.6699
-8.74644
-17.8794
-13.5039
-3.65497
-4.21064
-9.25803
-4.95835
-3.18824
-0.597683
-3.85766
-0.727162
-5.67106
-3.54988
-7.09268
-2.99335
-2.77157
-0.382635
0.127192
-21.6102
-12.2684
-23.6329
-5.7048
-17.8138
-6.06095
-26.2712
-10.8554
-23.3642
-17.0391
-18.5999
-14.9575
-27.6937
-12.739
-5.25794
-12.8606
-6.22615
-11.5436
-5.6509
-6.27306
-7.96255
-24.7809
-15.6278
-32.4151
-7.3757
-28.511
-19.4791
-19.7384
-35.385
-30.1416
-29.5799
-13.8516
-40.1368
-36.8037
-31.017
-55.7592
-19.9089
-63.0434
-41.6062
-122.912
-41.1564
-66.793
-58.956
-58.8323
-47.9052
-132.205
-86.1291
-128.446
-129.881
-189.272
-73.3409
-161.38
-138.375
-196.845
-100.534
-216.217
-162.94
-177.636
-149.535
-215.019
-146.57
-209.588
437.386
438.076
-202.431
432.69
436.9
-151.648
437.707
-139.722
-208.185
-130.077
436.25
457.849
-30.8299
-109.933
-21.689
-89.1339
-19.7417
405.303
293.967
-3.27141
-7.52484
-0.228403
-11.4569
0.936248
306.096
-2.78855
434.7
416.243
435.596
370.228
435.234
386.045
-18.6211
432.04
315.309
352.159
274
380.022
153.987
0.307104
305.095
303.279
-6.31443
285.272
-0.155799
421.429
431.821
360.422
435.247
410.743
432.519
450.485
310.484
416.458
299.946
418.902
272.268
437.88
257.015
1.55178
334.38
7.44511
291.496
-1.44294
245.81
-67.0225
412.933
430.467
438.479
431.178
556.321
429.97
619.262
318.782
441.482
223.018
422.045
259.945
431.838
275.397
-0.560815
304.364
4.40391
144.453
269.843
-33.0212
428.696
428.593
415.299
430.976
465.682
430.449
426.209
274.321
364.328
305.732
427.004
1.09076
436.097
195.233
267.916
1.54082
194.553
-76.2589
375.471
429.295
440.924
430.087
442.103
430.007
422.802
275.303
422.373
298.387
450.124
229.129
383.842
229.331
5.55106
335.518
-3.13594
161.848
265.601
-0.48312
410.389
431.25
407.326
429.548
208.983
427.723
407.724
291.506
416.332
398.897
145.457
429.166
286.695
-27.1333
2.00448
273.772
0.872957
257.586
-3.14973
432.361
-61.0454
-94.7174
428.813
428.426
427.892
431.888
418.76
-105.022
-142.924
428.17
408.134
431.002
-68.57
-143.336
-102.701
429.749
285.997
-144.496
-77.8472
1.31051
-70.5628
-4.77755
315.612
-4.83316
-55.5711
-1.89992
-96.7391
-59.0178
-96.9828
426.734
-45.8835
-104.064
-149.049
-116.299
-149.397
-147.432
-118.612
-155.948
-117.668
-156.904
-115.566
-148.272
-95.0768
-176.695
-131.46
-50.5702
-2.71785
-25.6715
-31.7076
-103.029
14.0579
-54.5055
-110.534
-41.7471
-54.7803
-107.569
-156.582
-55.0233
-69.9301
-15.957
3.77923
-14.0255
21.0681
-47.0454
14.3312
-32.0618
-17.3901
-18.7481
-48.3912
-50.405
-29.7176
-13.2532
5.53346
-11.1277
8.44206
-27.8497
8.32154
-12.7801
-16.0816
-12.081
-9.21482
-25.7121
-24.3926
-15.794
-12.6859
8.3507
9.33599
9.61942
1.58432
5.5079
-12.4297
6.58801
-9.50993
4.03081
-6.1136
-8.24569
-12.1458
-11.1639
-8.1063
-6.81469
-2.52721
-8.25128
-2.98876
-4.2149
-2.6197
-1.32846
-2.88324
-1.34657
-2.14423
-0.490601
5.22317
3.85994
-5.61906
-6.79792
-5.92689
-4.42834
-2.62586
-2.26467
-0.237002
-5.82875
-5.75731
-7.49763
-6.7278
-6.64674
-8.93188
-12.7492
-7.49027
-10.2595
-8.22368
-11.1293
-14.4535
-12.6012
-10.7652
-8.89224
-13.4339
-12.3282
-8.12484
-5.64317
-8.02463
-5.06679
-9.17318
-6.63535
-3.67162
-1.56282
-4.41912
-0.101192
-4.18397
-1.73316
-17.0217
-5.92633
-21.5787
-7.49845
-12.3067
-7.99231
-14.989
-15.59
-22.6714
-16.6885
-15.6724
-15.1011
-19.6853
-18.1295
-25.1549
-6.97489
-19.5884
-11.263
-28.7966
-17.91
-25.8465
-24.851
-36.1606
-32.6769
-41.5942
-143.007
-14.5731
-49.9454
-57.6527
-143.371
-146.369
-85.9243
-54.0413
-51.7161
-150.219
-127.047
-35.4542
231.758
-137.888
109.575
-60.4297
309.999
431.561
-162.949
-139.619
-195.348
-88.4574
-162.598
435.678
438.394
-125.676
-201.898
-139.708
-162.33
-145.999
437.958
-37.9306
-97.8085
-24.0947
-122.448
-54.3376
-32.556
-3.9409
-14.0555
-1.88244
-17.0997
-3.86605
-16.0163
-0.72601
-198.479
434.346
435.983
435.701
437.886
432.497
435.213
-126.146
435.709
401.803
437.146
420.218
434.451
419.792
-17.4752
404.832
291.272
429.192
-21.1014
426.138
217.188
0.326835
294.269
4.18916
-13.6898
-0.187275
271.874
1.55864
556.626
433.904
425.94
434.436
357.095
433.818
361.168
268.525
413.792
251.497
415.188
278.496
442.877
37.7813
4.56547
316.977
310.016
4.70437
227.197
-112.771
383.555
435.475
416.202
433.973
438.174
428.127
489.915
200.709
437.693
261.264
436.58
141.176
404.522
164.617
0.237612
354.502
-21.9216
207.086
327.349
580.987
429.013
592.71
425.496
436.831
419.406
371.808
218.566
430.55
209.692
345.607
160.363
327.679
271.469
-24.5852
234.459
-27.676
227.101
272.438
514.14
415.246
411.377
414.896
409.272
413.621
410.396
412.673
427.255
420.312
427.665
417.123
419.587
417.566
420.357
470.514
429.497
489.6
418.658
372.185
419.694
350.766
172.322
451.362
68.3952
330.802
269.184
276.692
247.39
167.298
267.928
473.057
241.557
737.023
452.654
431.443
208.6
423.081
393.139
427.387
426.333
207.508
393.83
192.619
267.489
180.716
439.322
232.983
376.979
-0.252645
212.16
697.482
257.322
388.744
426.963
408.66
428.821
543.669
427.332
401.093
180.607
426.27
327.142
437.466
228.294
424.935
209.007
-26.8579
285.582
-1.20494
310.37
234.698
-3.28624
428.383
430.101
431.834
423.541
427.286
429.354
430.665
438.11
430.968
426.902
442.705
429.895
357.123
303.644
-74.3605
423.022
234.75
342.75
298.323
-8.02336
-52.4046
0.315642
261.006
-25.933
299.977
1.68321
417.571
175.822
7.23245
331.576
418.178
190.058
-63.4059
432.13
-64.1808
-107.08
431.262
432.452
-71.8701
-84.8443
-150.159
-119.127
-155.86
431.252
324.306
-87.4107
-136.331
-88.5269
-168.127
-125.123
388.064
302.625
-150.787
-94.3561
-1.24089
-54.9101
-12.6686
1.03881
-50.3329
-9.89847
-114.595
34.0208
-48.3166
-83.1375
10.4005
-62.816
-159.27
-85.3678
-96.1078
-150.95
-79.7019
-124.8
12.527
-26.1562
13.3363
-39.3112
6.01557
-13.5197
-26.4474
-27.3099
-53.1174
-74.4388
-25.7689
-31.4043
-16.8856
5.16894
-10.3395
5.54764
-6.91558
4.32712
-4.63767
-21.1088
-12.9534
-12.8314
-16.6605
-19.4461
-11.5674
-14.1103
7.46451
1.70123
5.12004
8.4648
6.90369
3.75638
4.12464
-5.28465
2.98439
-4.9823
3.08324
-3.06264
2.90266
-2.03792
-9.90285
-6.89794
-6.60712
-7.86353
-9.25351
-4.09692
-5.93713
-5.24388
-4.93179
-3.43483
-8.43645
-6.36691
-5.47823
-4.19145
-1.9414
-2.71691
-0.614407
-4.55896
-1.98618
-3.28743
-0.714748
4.58721
0.876508
3.73686
-4.82683
3.14287
-2.28867
-5.5688
-3.37163
-5.2161
-3.06929
-4.98056
-3.97829
-0.395845
-3.46967
-0.503611
-9.38125
-10.1365
-8.62191
-7.93007
-5.276
-4.37046
-0.203862
-7.49819
-6.11181
-6.43913
-14.1248
-7.37266
-5.7565
-6.22559
-9.99221
-7.4576
-10.2712
-7.31178
-9.45246
-7.18822
-9.89691
-8.95478
-13.3138
-12.3285
-10.4022
-9.43943
-13.1433
-12.3212
-5.18347
-10.0413
-7.46408
-8.17463
-5.70174
-10.2822
-7.71928
-0.170839
-4.48917
-1.8001
-4.19042
-0.628724
-4.57008
-1.82401
-161.08
436.358
438.223
-68.7076
-146.032
437.52
437.826
-138.909
437.802
-163.079
-139.087
437.339
429.304
-54.8692
-33.019
-110.762
-56.7144
433.96
-30.4612
-4.15895
-19.1161
-1.04984
-28.0561
-3.49165