/*--------------------------------*- C++ -*----------------------------------*\
| =========                 |                                                 |
| \\      /  F ield         | OpenFOAM: The Open Source CFD Toolbox           |
|  \\    /   O peration     | Version:  4.0                                   |
|   \\  /    A nd           | Web:      www.OpenFOAM.org                      |
|    \\/     M anipulation  |                                                 |
\*---------------------------------------------------------------------------*/
FoamFile
{
    version     2.0;
    format      ascii;
    class       volScalarField;
    location    "88";
    object      p;
}
// * * * * * * * * * * * * * * * * * * * * * * * * * * * * * * * * * * * * * //

dimensions      [0 2 -2 0 0 0 0];

internalField   nonuniform List<scalar> 
146404
(
-7.7943
-3.71062
-10.2819
-6.22985
-12.5013
-7.83823
-3.88953
-2.10682
-6.52207
-22.1734
-2.28378
-6.33023
-3.0418
-10.2844
-6.252
-3.36828
-6.65757
-5.89265
-3.95001
-9.75664
-7.81279
-11.4216
-8.5757
-4.28781
-5.41551
-7.54711
-11.7862
-10.4973
-4.78598
-1.03162
-7.78297
-18.7687
-14.0561
-4.49671
-0.149718
-6.73771
-15.8918
-11.3668
-4.50138
5.38857
-0.882339
-21.1117
-4.20412
4.63428
-4.81738
-15.2242
-11.4081
-4.82672
2.96982
-3.03814
-9.8613
-9.27354
-4.78972
1.99498
-1.53148
-7.86146
-7.60894
-3.91953
0.210154
-0.653599
-6.61769
-5.38448
-3.03593
-3.62112
-8.62576
-3.18739
-2.36857
-8.28378
-17.7317
-12.2533
-5.71211
3.06476
-8.67561
-25.0646
-19.7848
-7.78997
6.13758
-11.4885
-33.0522
-26.4101
-8.707
8.64608
-7.20574
-26.2901
-20.7569
-10.0958
16.2189
-6.3313
-36.6907
-9.90593
13.7808
-7.30963
-26.8896
-25.2811
-11.191
17.4567
-5.15747
-25.8114
-22.8077
-11.3841
11.6009
-0.410881
-15.5921
-15.5158
-7.42531
9.72696
-2.20499
-12.3055
-7.39565
-4.33216
11.4988
-7.94352
-7.93246
-1.30509
9.14322
-2.28642
-1.49133
-1.03192
-9.02494
-11.8971
-15.8671
-10.4504
-4.05781
-2.01862
-11.1878
-23.7284
-12.6732
-5.45491
7.23718
-1.25828
-29.6338
-12.8457
-10.0898
14.4568
-12.1036
-35.7725
-32.2303
-12.2109
25.0629
-30.2656
-56.5861
-58.4911
-12.3183
38.9058
-32.408
-74.3559
-51.3471
-12.5964
51.0668
4.68557
-94.0873
-12.5603
40.5718
-22.5242
-76.8103
-58.2544
-16.8345
31.6337
-17.1603
-56.7286
-56.7061
-20.6128
28.3763
-1.77653
-33.022
-36.5457
-15.6223
24.43
4.8343
-26.4777
-11.1207
-8.70477
17.4961
9.56181
-8.60977
-8.16337
-4.72392
11.8231
8.46227
-0.63401
-3.26251
-2.49539
9.28406
3.12204
-0.38436
-1.53932
-10.8738
-11.9277
-14.3338
-10.5259
-4.48184
-4.50706
-13.4157
-25.6256
-15.4979
-5.1776
1.72033
-15.0818
-33.453
-24.6619
-8.78942
24.7255
-13.363
-57.139
-27.6137
-11.9767
59.011
-21.2203
-95.73
-118.17
-19.6352
104.069
-81.2779
-162.933
-144.083
-28.6367
120.471
-91.3251
-162.931
-148.236
-33.7071
152.317
-70.0001
-144.982
-24.0033
122.236
-97.0593
-159.496
-159.219
-42.4321
98.2736
-75.6075
-134.968
-175.88
-56.6399
67.6233
-1.79025
-90.4562
-141.619
-42.4122
45.3447
23.7032
-41.3327
-58.5749
-22.5343
27.1618
10.7192
-16.0371
-20.821
-10.4754
18.6763
9.18198
-4.24276
-8.1572
-4.28892
12.0628
10.2522
1.72535
-3.1987
-2.52725
-13.6224
-11.9173
-14.7344
-9.08202
-4.12299
-5.77419
-14.2111
-19.3201
-14.7691
-5.22603
-0.894396
-15.4978
-38.6836
-24.5469
-7.81965
12.535
-29.4696
-88.9164
-47.3212
-11.9685
58.2456
-112.015
-176.536
-129.546
-16.0224
142.554
-95.1901
-146.848
-177.168
-24.8453
312.072
436.289
-127.115
-20.8039
383.339
434.673
435.874
410.86
386.829
431.691
435.324
429.162
305.84
373.208
431.103
434.691
422.573
306.637
430.186
-146.986
-45.6342
184.636
-124.12
-68.866
81.9251
-13.1627
-74.073
-135.67
-45.0124
38.642
8.47117
-40.7697
-55.9882
-20.25
25.5916
16.1952
-11.2571
-19.5304
-7.9156
18.066
9.67889
-2.07387
-5.71305
-4.28608
10.4238
9.60815
0.896924
-0.891956
-1.54916
-5.13834
-11.0732
-21.5002
-7.4571
-3.11783
-2.07003
-14.0551
-25.8935
-15.0108
-5.23602
6.24294
-18.4256
-44.2663
-29.242
-9.06304
37.3441
-74.9936
-127.346
-66.2734
-14.1353
125.364
-144.395
-216.302
-132.491
-17.6072
374.495
437.669
438.584
-14.4561
413.43
431.144
434.733
405.995
304.063
414.76
427.667
432.256
438.077
331.676
413.567
426.258
432.445
425.267
283.785
409.994
426.088
430.871
416.727
331.934
391.973
426.558
431.756
399.529
294.428
350.666
432.642
433.297
424.16
-55.511
184.629
-26.0419
-71.3973
-145.398
-77.5069
65.6642
1.73076
-69.9175
-118.684
-35.8165
37.1969
17.3986
-21.9138
-28.1958
-13.3551
23.0875
13.8289
-9.28467
-9.89248
-4.91529
16.1817
11.2724
-6.26911
0.0493915
-1.83406
-3.85534
-8.85266
-18.1089
-10.4315
-4.74905
3.82879
-3.71876
-27.7587
-13.7381
-7.22041
25.0244
-37.9136
-11.4106
83.8647
-83.1615
-169.45
-116.548
-14.635
304.07
-210.874
-118.498
-7.35267
414.258
431.823
436.562
391.771
274.213
417.582
428.251
435.715
378.91
265.788
415.727
424.596
434.587
431.616
328.851
413.983
421.982
430.625
432.027
211.312
413.649
423.211
432.552
454.854
316.066
409.771
424.289
432.175
351.804
296.47
388.798
427.269
428.28
429.972
312.186
309.112
430.102
433.031
-121.843
-64.116
106.188
3.07653
-70.0569
-125.967
-45.6463
49.2382
91.6637
-167.353
-18.1316
25.8532
16.8099
-17.9181
-12.745
-6.21716
15.1206
7.65951
-6.00191
-4.88778
-3.70529
8.95021
-1.82301
-1.85957
-1.69384
-7.54283
-10.817
-8.51917
-4.69139
-1.70038
-8.31687
-19.6553
-13.3303
-4.63949
5.83743
-12.7198
-38.0559
-25.516
-8.20225
29.7683
-30.3221
-72.5748
-51.3818
-11.9737
99.4648
-65.3331
-186.334
-119.025
-26.7479
381.483
437.302
437.982
438.396
-2.34602
417.491
430.566
435.239
387.858
260.112
417.386
426.244
434.049
458.409
167.532
414.997
421.316
425.531
289.778
230.663
408.774
417.525
414.987
337.765
258.541
411.125
418.891
420.819
289.389
225.378
412.462
422.716
431.071
439.946
177.245
400.442
423.904
428.595
412.695
256.883
351.927
431.495
433.88
385.311
311.278
140.575
-30.8833
-81.1633
-151.669
-70.3458
38.8618
11.8743
-46.4416
-54.5355
-19.4468
22.7936
7.46171
-12.5905
-18.1972
-8.48436
15.3547
9.16549
-2.97007
-8.89567
-5.06708
7.51337
8.56306
1.08489
-2.58703
-2.76714
-14.0552
-7.28693
-10.5421
-8.57149
-4.57304
-1.35628
-7.9856
-19.2149
-13.4752
-4.78505
6.51671
-12.9996
-38.0722
-26.4223
-8.67616
31.9111
-32.3167
-74.8859
-55.3567
-11.9438
116.53
-78.2228
-175.502
-122.306
-28.5718
385.986
438.132
437.673
421.539
418.03
431.21
436.125
441.712
332.876
418.039
426.42
442.534
450.25
203.698
412.839
421.02
419.316
330.877
277.784
408.854
416.753
405.651
338.76
267.501
406.89
418.717
413.773
333.961
262.97
413.398
423.023
429.113
455.402
211.081
403.157
424.454
429.536
442.438
261.952
356.187
430.856
432.407
415.951
315.096
148.066
-39.151
-100.419
-151.546
-58.5925
34.3001
1.86781
-44.0849
-50.3124
-18.5922
22.5145
7.59397
-14.8504
-19.1136
-8.78927
14.7235
8.86436
-3.47518
-9.70145
-5.20317
6.95754
8.06471
0.554084
-3.38435
-3.26415
-7.09834
-10.3119
-7.90911
-4.61603
-3.05965
-6.96035
-15.4418
-11.7338
-4.49924
6.21914
-6.89776
-26.8864
-22.4496
-8.86562
33.9068
-13.9883
-66.3441
-61.8078
-12.1701
127.271
-51.2913
-146.656
-152.616
-36.5558
375.826
437.254
438.167
413.886
-17.9157
416.094
432.094
435.966
427.323
278.672
419.191
428.746
438.869
438.636
209.462
417.166
423.506
427.813
320.735
231.924
413.878
420.35
419.365
330.482
269.686
415.304
421.5
425.044
327.939
259.66
412.666
425.647
434.065
442.159
143.349
399.359
427.399
430.781
352.321
264.972
338.527
434.589
434.54
423.012
317.758
112.063
-52.5586
-101.454
-152.357
-30.0123
42.0145
11.7872
-47.2013
-66.4563
-14.9815
21.9419
11.0009
-13.4859
-18.8978
-6.05563
11.9644
7.16585
-4.62227
-7.63689
-4.71353
5.52483
7.28596
0.209102
-3.3944
-2.98755
-0.994094
-7.11061
-16.9882
-8.17439
-3.80997
7.59201
-4.73359
-26.9507
-7.75593
-7.39976
26.6621
-19.0498
-12.1807
75.4037
-46.8576
-136.957
-160.225
-26.1581
288.479
-139.197
-151.339
-29.113
397.69
433.7
436.682
437.712
291.858
416.027
430.362
435.992
433.911
228.24
418.318
428.827
433.705
453.106
323.455
418.117
432.269
440.527
441.855
229.209
414.511
427.348
434.198
430.652
261.907
408.115
427.441
431.837
374.252
260.787
384.766
432.033
431.599
373.689
300.521
290.467
432.865
434.937
-170.175
-33.1614
65.9439
-45.4163
-119.646
-212.247
-16.5472
27.7554
-4.71768
-83.4133
-10.2678
15.2807
19.0311
-22.026
-17.8825
-5.3637
9.10399
10.3893
-9.0337
-8.56274
-3.90663
6.40253
-3.44249
-4.09734
-2.66165
-4.11305
-8.74926
-18.6711
-8.15611
-3.57017
0.604878
-9.4008
-19.3904
-14.0723
-6.10016
9.26177
-11.738
-35.723
-31.776
-10.117
35.7567
-35.2186
-87.5117
-76.5796
-17.916
130.241
-68.869
-147.595
-158.037
-34.3782
333.876
439.084
439.843
-36.1829
393.211
434.122
435.971
430.015
264.084
405.357
430.088
434.377
447.042
252.773
407.399
429.651
438.558
359.215
167.344
402.317
429.399
433.193
441.733
263.795
384.431
433.203
431.987
403.741
290.132
337.429
434.873
435.47
340.772
-6.17237
91.996
-108.546
-184.994
-165.494
-19.19
11.9615
-17.1973
-47.9075
-41.2039
-13.8293
4.99835
-7.19722
-32.5061
-27.6322
-7.14604
3.68158
-8.90254
-19.1356
-12.2885
-5.35173
1.88645
-6.55502
-18.2454
-6.07603
-2.8188
-12.1019
-8.02807
-11.6346
-8.0763
-4.22873
-4.09811
-8.39847
-13.3971
-11.0652
-5.20139
2.10771
-7.58596
-23.4825
-17.9232
-6.78105
17.0629
-10.8315
-39.042
-42.4406
-13.4725
51.9453
-33.8631
-109.278
-127.733
-20.2784
120.664
-59.4999
-101.845
-167.498
-50.97
281.927
435.591
-115.405
-153.379
-31.3994
352.354
435.366
437.887
393.231
361.249
435.717
438.613
402.244
318.394
350.418
435.255
436.913
422.692
281.248
436.004
-158.036
-21.4229
95.1657
-188.894
-14.5413
34.6473
-35.4931
-90.7519
-79.7239
-12.9096
4.1514
-9.28029
-28.5411
-22.1926
-7.24271
-1.12981
-8.85446
-17.6685
-12.7566
-4.86794
-2.75373
-7.20977
-13.3159
-10.4679
-4.68954
-6.03975
-6.47719
-11.0888
-7.57351
-3.72147
-8.12754
-7.54883
-10.7167
-8.65687
-3.92804
-2.64967
-7.14853
-15.4587
-11.3019
-4.74137
5.0171
-7.28552
-24.2536
-21.1539
-7.18418
22.1827
-0.621518
-47.2752
-33.3405
-10.8628
37.4963
-21.8588
-79.3018
-98.3234
-15.4093
52.8839
-58.7955
-136.304
-124.209
-15.8794
72.6646
-116.525
-145.913
-121.35
-23.8007
81.6487
-123.045
-168.746
-20.8489
71.0871
-114.145
-161.032
-120.714
-10.8941
48.8146
-59.8164
-136.938
-109.439
-13.6535
30.0906
-14.8115
-83.9929
-99.2372
-10.263
13.8061
-8.80372
-54.8931
-29.1014
-7.25794
1.89449
-8.1538
-23.6198
-18.7674
-5.26504
-3.12798
-8.03549
-15.0155
-12.0101
-5.10297
-6.35505
-7.11511
-11.2983
-9.60702
-4.63524
-5.66325
-7.92828
-13.2186
-8.88865
-4.08828
0.749267
-6.0587
-20.3584
-11.7265
-5.01681
4.52978
-6.53946
-27.6534
-12.0825
-6.26896
4.38574
-9.60797
-25.787
-23.2249
-9.3878
6.1906
-14.5452
-36.2512
-28.4505
-10.4138
20.184
-18.3377
-47.5436
-43.4506
-11.049
26.127
-23.4914
-53.0772
-10.5872
7.34964
-21.0473
-51.1076
-26.2362
-9.44938
3.5955
-11.4936
-29.085
-23.7735
-9.36941
5.47031
-9.21211
-28.4682
-26.4707
-6.4915
2.45324
-4.39972
-29.5993
-17.2244
-4.71162
-1.9054
-6.62734
-21.0967
-11.0758
-4.11627
-6.41599
-7.82758
-12.9731
-9.29917
-4.58434
-7.20497
-10.0588
-7.88618
-4.46775
-3.67066
-2.21243
-3.25879
-3.86607
-8.11194
-14.7874
-10.1371
-4.94599
-1.2786
-7.02922
-16.4067
-14.552
-6.35307
-1.4628
-8.37028
-19.7666
-14.5332
-5.11438
2.47344
-8.16605
-23.1544
-18.9557
-5.16184
6.16015
-9.98455
-20.3975
-4.81982
-1.31257
-12.7047
-24.9002
-12.9365
-4.87875
-0.388163
-8.99761
-17.2868
-12.9672
-5.01075
-3.77305
-9.35734
-16.8669
-13.4055
-5.73348
-5.35304
-9.33794
-16.0012
-10.4251
-4.60257
-4.29956
-1.50617
-23.0328
-12.5002
-3.40574
-14.277
-6.53512
-3.62699
-11.3786
-7.5687
-11.2214
-7.66489
-4.06184
-7.7064
-7.57461
-10.8284
-9.45988
-4.79323
-5.90407
-7.31086
-13.3417
-10.7272
-4.83702
-4.13971
-8.10248
-15.5391
-10.5226
-4.75579
-0.895096
-10.0502
-11.6691
-4.65983
-4.82715
-11.0484
-16.1791
-10.3286
-4.66183
-7.71138
-9.91712
-13.106
-10.503
-4.69023
-9.03001
-9.18437
-12.4452
-10.3372
-5.06216
-11.1233
-8.78663
-12.2608
-8.70855
-4.41599
-12.7258
-7.31541
-12.2473
-8.64503
-4.30651
-10.0084
-10.1304
-5.89445
-3.24724
-13.1291
-9.36449
-14.5586
-8.91803
-4.29348
-8.55838
-4.67821
-10.6848
-11.3029
-9.05867
-8.01731
-4.83555
-3.97891
-0.305313
-7.28492
0.362001
-11.3754
-10.8912
-19.4064
-11.8363
-9.17869
-19.904
-10.0705
-7.89225
-4.69801
-10.3334
-3.06603
-3.89467
-0.316234
-2.75493
-0.330796
-6.80943
10.76
-1.36648
-6.22036
-2.57208
-10.0441
-10.5474
-7.43159
-22.2285
-2.7483
-5.92744
-3.77981
-2.48552
-0.307807
-3.27061
-0.375406
-2.08024
-3.02821
-9.31578
-9.90328
-7.36386
-5.95255
-3.91425
-3.36137
-0.373223
-7.43394
-7.70798
-10.9122
-11.3295
-9.23812
-8.15979
-5.02283
-4.23074
-0.277683
-13.6359
-7.49732
-8.83032
-7.13456
-7.71095
-10.6961
-7.52424
-9.54108
-11.0852
-9.21062
-10.6239
-9.85863
-8.15373
-5.12292
-8.87288
-5.95452
-4.33405
-0.299569
-4.53487
-0.783021
-8.00085
-6.85255
-5.77775
-6.16796
-7.25473
-9.45911
-6.92553
-10.1107
-10.5177
-10.1672
-11.7362
-11.026
-9.24346
-6.30454
-10.2675
-6.76949
-4.75224
-0.842006
-5.06996
-0.976325
-10.7621
-5.97018
-5.40267
-5.61165
-4.1093
-4.71195
-6.35497
-10.5029
-6.70368
-9.35818
-6.61207
-10.6305
-9.65824
-11.447
-9.82134
-12.4715
-11.7438
-14.1328
-13.1806
-5.65687
-7.80013
-5.20016
-9.93591
-7.35427
-10.6285
-7.62569
-3.90533
-0.639254
-4.33758
-1.69875
-4.44617
-1.74903
-5.66663
-3.17886
0.628519
-2.63721
-3.46264
0.431264
1.5175
-11.6284
-7.66483
-19.7609
-7.02937
-11.717
-12.4867
-23.0772
-10.1411
-20.1633
-11.3576
-13.8676
-12.2932
-24.0825
-14.2421
-5.13496
-5.6754
-3.83758
-8.97108
-7.13666
-6.29647
-4.1378
-0.713505
-2.98614
-0.647055
-4.62385
-1.96781
-3.38628
-1.54426
5.81245
-5.96753
-1.23724
2.85769
11.5207
1.4181
0.630546
-2.82586
-9.73338
-1.98409
-2.50054
-11.1031
-10.5622
-8.0947
-16.3514
-12.2182
-11.2985
-2.8427
-5.81372
-4.16779
-20.4469
-5.13642
-8.75799
-5.74065
-0.506516
-3.25068
-0.661482
-3.89151
-1.55759
-4.33394
-1.94415
-2.18163
-2.1237
0.825727
-0.639262
0.277133
-1.00807
-9.23827
-2.4236
-6.3903
-4.10963
-9.08331
-3.87914
-6.97995
-8.4201
-7.04724
-6.73945
-12.2617
-11.4156
-9.42505
-9.03797
-4.34421
-6.01953
-4.26877
-7.94101
-5.79938
-8.16295
-6.25975
-0.649576
-3.74828
-0.385548
-4.17382
-1.8081
-4.28166
-1.86883
0.538475
-0.724667
-0.3016
-0.503926
-5.93678
-2.72648
-5.22091
-1.57879
-5.20006
-6.47917
-7.934
-8.45427
-6.71422
-7.59246
-4.33093
-7.47146
-5.79002
-7.15439
-5.23665
-0.366887
-3.79616
-1.66504
-4.09167
-0.827695
-0.591665
-0.459519
-1.95482
-0.0958493
-1.42364
-4.91834
-0.537385
-4.54386
-6.40767
-7.0854
-6.04929
-6.08196
-6.6869
-4.83283
-5.29899
-3.98817
-3.85035
-0.762589
-3.25777
-0.646754
-2.53237
0.0396771
-0.403544
-5.36174
-6.08389
-5.89926
-5.31307
-3.59462
-3.16935
-0.331479
-8.12049
12.0538
-5.4456
-3.76985
-3.05939
-0.547828
-11.972
-7.37635
-6.32585
-1.99388
-5.83399
-5.64536
-7.6571
-11.3816
-8.24106
-8.59003
-13.7068
-11.9662
-10.0923
-14.0201
-15.4386
-13.4384
-8.02762
-5.24508
-3.00344
-4.66916
-8.62917
-5.83476
-3.95757
-0.62591
-3.48569
-0.649098
-3.8427
-1.56587
-7.24454
-6.74938
-6.47328
-5.28596
-5.38308
-3.99616
-5.09928
-10.6916
-7.85395
-9.86612
-8.25271
-12.433
-7.95256
-11.8609
-10.2388
-11.7501
-11.6798
-14.5353
-13.7263
-14.601
-14.236
-5.77435
-9.35595
-7.34859
-10.2198
-7.44775
-11.6637
-8.57813
-0.75001
-4.167
-1.71321
-4.86019
-2.10232
-5.21638
-2.15489
-13.0905
-12.296
-23.9106
-6.78105
-15.841
-4.70355
-33.1323
-15.0521
-25.2275
-15.4159
-20.3642
-19.4898
-34.3284
-23.7285
-2.34118
-12.4291
-6.61601
-0.86414
-17.4112
-17.9356
-13.6677
-13.0511
-26.7496
-20.2021
-19.9761
1.20451
0.377668
0.473854
6.25012
3.46514
5.2356
3.82024
0.736703
5.31441
4.056
7.70208
7.32576
-5.37376
-1.77897
-7.80564
0.549067
-14.5312
-6.50539
-10.2496
-9.26031
-14.3828
-7.10102
-3.76515
-6.27839
-4.37591
-2.38277
-3.35294
-0.644538
-3.31854
-1.5129
-2.2754
-0.556808
8.20486
10.3884
1.48188
-16.3528
9.70066
-2.72619
-16.5203
-6.95639
-4.28276
-3.3243
-4.54679
-0.88509
-1.88659
-0.566253
-1.06369
-0.350638
-0.641001
-0.271441
-12.384
-10.8122
-11.4603
-13.5865
-14.1263
-11.1596
-9.34836
-5.61361
-4.24992
-0.741923
-6.58394
-2.15779
-10.7082
-10.1822
-6.54729
-7.46135
17.7953
-11.8436
-14.4444
-11.6778
-19.9155
-36.589
-15.2211
-13.0247
-20.2093
-13.8818
-1.30685
-4.42827
-8.79309
-6.19563
-8.57771
-6.26445
-3.2832
-0.612368
-3.80184
-1.55079
-4.00148
-1.67088
-7.23112
-17.1002
-11.112
-23.1821
-2.62309
-29.5378
-18.0099
-14.6189
-23.1311
-13.9416
-28.4247
-21.2625
-20.5664
-4.80804
-35.7043
-13.0548
-32.1655
-6.38728
-68.206
-27.415
-36.8091
-26.8735
-41.7244
-42.7781
-63.6979
-56.2292
-0.845857
-20.7835
1.73573
-0.261143
-40.1923
-30.2281
-24.012
-25.4239
-64.4313
-46.5636
-48.3528
-11.166
-0.127547
-15.5521
3.21762
-20.0462
16.4483
-9.42539
-11.452
-15.6422
-6.81204
-22.3992
-18.5743
-11.6402
-11.279
11.55
4.58746
10.2585
14.1587
15.4645
11.74
11.656
9.41497
-1.34149
13.0591
-4.75278
8.4139
1.80714
-7.34331
-4.09764
-3.79452
-9.3044
-9.81365
-3.65834
-4.88604
-1.5485
-1.50532
-1.18457
-6.49528
-3.54171
-3.5626
-2.82123
-0.757113
-1.01653
-0.394429
-2.90469
-1.3174
-2.54641
-1.25114
10.0318
10.4757
10.1796
9.50167
-0.757552
8.78073
2.11715
9.04613
4.02442
-2.68365
-0.639157
-2.89299
2.74076
-0.642012
-1.1908
-2.89857
-2.24929
-0.522034
-1.6976
-0.402426
-2.16768
-0.550734
-1.49947
-0.371065
-14.8601
-11.7042
-11.5197
-12.5528
-12.9205
-10.839
-9.38193
-6.04913
-4.52762
-0.702137
-11.4436
-10.786
-13.0431
-11.5042
-9.97081
-10.4367
-11.745
-12.9715
-11.6812
-12.9558
-12.0354
-14.0788
-13.9468
-12.5086
-13.2106
-11.3917
-15.1387
-13.7516
-9.6208
-7.17483
-9.81334
-6.36
-10.7051
-7.7645
-4.18949
-1.69439
-4.59954
-0.782958
-4.36892
-1.72338
-23.8477
-4.82371
-33.9448
-13.2173
-23.9147
-10.5671
-39.829
-17.6858
-30.6384
-27.9562
-27.3735
-24.7274
-41.8622
-33.4021
-30.5237
-9.9273
-27.9718
-7.51348
-49.4869
-6.36484
-53.2077
-22.3966
-31.2145
-32.8532
-49.4961
-36.543
-61.8618
-64.4924
-56.4284
-4.70309
-80.0832
-91.2224
-138.434
-70.2553
-141.91
-72.7265
-74.8594
-72.3082
-156.079
-139.986
-155.752
-163.281
-5.93372
-54.4657
-23.8467
-72.7133
-139.291
-81.7932
-65.1483
-69.613
-160.616
-162.861
-171.578
-21.1722
3.37459
-23.4274
2.41755
-58.6654
64.8328
-37.6643
-27.3558
-26.1812
-74.4267
-101.247
-82.0776
-24.7982
15.6934
-7.9076
33.8874
-39.0763
15.8377
-6.40588
-19.0119
-12.8525
-13.6623
-39.1174
-56.4287
-13.2619
-20.7256
11.6912
4.63109
9.96923
14.7887
13.018
12.0201
11.6282
4.37336
8.98429
4.82413
9.83367
4.23599
9.73227
6.184
-2.8945
2.32851
-0.737883
-1.58144
-4.71948
1.16255
-1.76604
-2.99596
-0.765196
-1.88446
-6.11204
-4.72214
-3.72748
-3.53839
-1.24596
-1.6414
-0.513952
-3.7663
-1.74445
-2.73943
-1.32146
9.66239
10.6161
10.6398
4.41386
9.86339
5.06408
-0.412712
2.2683
-1.19197
-1.75697
-2.31828
-2.18561
-0.395499
-2.10333
-0.562212
-12.1302
-14.1414
-14.1908
-10.0833
-9.54277
-5.07454
-4.67191
-0.171911
-13.5297
-11.6065
-17.1939
-11.6449
-10.2606
-11.1117
-11.7081
-12.9074
-11.8421
-13.9832
-12.258
-13.8015
-13.2418
-11.3703
-14.0302
-10.1865
-14.5284
-13.0573
-9.82357
-6.34411
-9.34955
-5.17982
-9.97567
-7.06706
-4.66414
-0.773128
-4.50664
-0.223493
-4.03898
-1.55064
-55.4783
-9.59189
-71.5496
-44.7356
-96.7923
-82.4548
-131.326
-48.1974
-78.0454
-103.351
-113.618
-118.017
-134.081
-199.017
-83.8425
-89.5119
-111.073
4.36841
-90.9709
-129.478
-111.197
-126.497
-156.872
-189.261
-130.743
-135.405
-124.857
-83.3722
-144.523
-133.075
434.886
437.085
-178.246
-159.504
-166.43
-135.685
-139.664
436.402
-74.3501
-137.438
-67.3906
-126.7
-55.7502
-44.0967
-5.92198
-31.2082
-8.23433
-29.0008
-5.74287
-26.6762
-1.06985
-94.1607
151.505
-120.275
336.963
430.482
350.362
426.528
-148.374
-93.8069
-138.084
436.038
436.98
433.248
436.057
-166.483
-151.562
-157.115
436.281
387.752
435.701
365.272
-67.2613
-143.603
-52.5898
418.672
-38.5549
442.894
-7.72602
-24.419
-5.01639
-25.7421
0.0129152
2.50239
-99.816
130.034
-118.815
350.237
426.683
341.767
424.167
-105.476
-137.311
433.079
435.386
432.608
435.517
-152.02
-161.977
-178.235
435.122
401.922
435.07
359.822
-50.9207
-155.179
-76.1543
428.223
405.753
-43.9741
-4.71545
-35.3574
-7.89814
3.8033
-26.3024
0.994939
-134.957
-69.2875
-114.341
433.065
435.683
431.905
-181.1
-137.782
-191.362
435.202
385.533
-158.332
-88.2894
-161.849
-102.449
416.888
-46.9352
-153.731
-75.8154
-8.80762
-49.787
-11.1666
-28.2081
-0.0502499
-41.9768
-3.14463
-85.5859
-51.1449
-88.6312
-113.261
-76.0995
-93.384
-178.596
-114.075
-154.58
-121.811
-153.17
-102.691
-137.285
42.8837
58.5829
49.4185
113.896
40.8675
83.5602
44.1466
-75.8414
38.1878
-52.7049
8.39825
-65.5028
-130.244
-51.4111
-89.6056
-86.5349
-123.302
-130.845
-95.7479
-92.7223
-121.994
-145.931
-133.268
-141.064
-25.2321
14.3276
-4.75326
2.86935
-33.9949
9.56079
-13.9179
-62.8637
-21.5798
-31.0031
-71.4837
-110.641
-39.2107
-57.2588
11.1218
14.6667
12.7465
11.0771
11.1456
6.69494
10.0978
5.53178
9.87135
4.26577
-1.06282
0.250151
-2.56991
1.85108
-0.965053
-2.75774
-4.27597
-3.5793
-1.10674
-1.7039
-1.26395
-3.00625
-1.42032
-1.633
-0.549779
9.77532
10.6945
10.0158
3.48883
2.19815
-0.525823
-0.310421
-1.2175
-1.49003
-0.281436
-17.7867
-12.2431
-9.77071
-8.03832
-12.4178
-14.5757
-13.2001
-19.6625
-14.5556
-9.91597
-19.2575
-11.225
-9.04852
-4.86188
-7.06869
-4.70515
-5.12908
-0.205545
-3.60702
-0.598127
-11.2966
-9.19816
-10.1675
-8.48015
-9.2867
-6.79765
-9.00487
-14.7963
-12.9983
-15.6578
-13.7863
-18.5347
-13.9603
-18.3607
-11.4343
-16.639
-14.6205
-17.9177
-14.1981
-19.173
-16.3077
-5.69206
-11.0841
-7.88982
-7.90822
-6.00967
-10.6355
-7.45074
-0.613947
-4.50632
-1.78463
-3.59732
-1.46575
-4.55095
-1.86957
-149.368
-109.732
-132.09
-120.685
-210.564
438.847
-182.938
-150.651
-199.56
-224.557
-186.835
-184.354
-132.573
-132.583
438.765
439.309
432.852
436.959
-184.025
-132.499
-133.872
439.096
-175.27
435.221
375.825
-65.2093
-126.761
-46.1764
-140.88
-34.6995
423.349
317.499
-4.43994
-20.1294
0.675199
-15.757
1.22095
314.675
434.519
437.309
433.388
435.882
430.743
434.082
-136.984
436.458
461.456
434.035
405.922
433.227
415.668
-47.477
425.158
406.926
314.86
419.237
345.649
1.47065
-24.6122
0.877908
316.995
19.0633
275.307
7.82251
436.43
432.396
434.204
427.993
432.763
427.156
431.394
402.57
435.691
343.953
432.906
413.158
432.112
442.073
451.958
349.027
439.379
311.718
444.576
247.228
0.892712
326.868
2.26441
244.841
2.12633
304.195
2.03823
433.551
431.663
435.106
426.456
430.885
425.979
430.705
403.952
434.365
392.242
432.117
434.18
430.455
475.021
320.536
412.09
323.757
425.599
298.907
372.084
293.108
2.73926
1.91957
296.839
294.376
5.73629
435.281
431.859
435.231
427.112
431.456
429.416
432.68
373.974
434.556
-159.475
430.946
415.674
430.394
377.351
-151.235
-65.539
353.319
225.855
411.075
278.618
1.46766
-46.6036
-1.48687
239.146
5.89081
311.06
-6.77984
435.009
-77.3714
427.401
433.053
433.771
434.058
-157.276
-121.99
432.43
549.282
433.107
410.894
-73.3638
-97.1914
-102.006
404.379
319.366
395.546
-74.8725
-4.91562
-71.7354
-17.4637
301.021
-13.3296
-55.4248
-17.9011
-46.5247
-59.5551
431.22
434.255
-32.6589
-65.7894
-88.1135
-118.197
433.694
410.305
-76.0678
-123.434
-130.636
-140.512
-135.021
-82.5273
-137.687
-129.831
11.2483
14.7188
13.7723
3.28785
10.1276
-2.49713
-1.05989
-4.47914
-3.0702
-1.29506
-0.779482
-1.05073
-0.482167
-1.51581
-0.509534
-7.74284
-7.24765
-5.58617
-3.91373
-12.6623
-22.0593
-5.88106
-17.523
-21.1535
-9.09447
-18.2364
-14.0767
-3.96566
-4.41465
-9.8287
-5.29389
-3.32053
-0.615328
-4.13735
-0.761957
-6.0935
-3.85095
-7.56364
-3.08199
-2.78398
-0.51089
0.174434
-22.1288
-13.068
-24.3387
-5.49368
-18.0981
-5.46667
-26.7514
-11.307
-23.9429
-17.4604
-19.0128
-15.5536
-28.3451
-13.7066
-5.5131
-13.5306
-6.66784
-12.0123
-6.04369
-7.08133
-8.61664
-25.4849
-16.6457
-33.0433
-6.51484
-29.0317
-23.8903
-20.3514
-35.3475
-31.1313
-30.2731
-14.8909
-42.3004
-37.4008
-34.1469
-56.5825
-24.2418
-65.3748
-43.84
-124.467
-42.0747
-67.5548
-62.0767
-61.1304
-51.1999
-134.146
-104.367
-116.507
-146.545
-184.604
-75.9778
-167.958
-145.581
-207.64
-108.659
-195.501
-162.269
-189.063
-177.34
-225.651
-167.507
-217.074
438.806
439.606
-212.742
434.187
438.31
-165.737
439.206
-170.405
-217.061
-146.443
437.607
458.897
-41.5331
-136.127
-31.9665
-101.23
-24.0411
406.142
292.65
-3.03652
-9.99765
0.994803
-14.062
2.06599
304.629
-2.46864
436.361
417.367
436.997
371.394
436.679
387.864
-29.8088
432.768
314.862
353.098
273.238
381.762
154.383
1.77493
304.451
301.806
-4.93807
287.045
-0.434887
422.834
433.451
362.103
436.721
412.015
434.141
451.875
309.723
417.885
300.584
420.566
274.344
439.538
258.48
1.41744
335.213
7.0102
294.27
-1.96531
254.877
-75.2847
414.825
432.179
440.193
432.851
558.254
431.765
620.04
319.258
443.635
223.688
423.962
259.044
435.14
277.059
-0.45003
303.967
4.52335
145.453
272.438
-34.9096
430.349
430.517
417.293
432.829
467.57
432.4
429.307
274.528
365.851
305.702
429.588
6.09619
437.737
196.22
268.608
1.04589
195.472
-82.0967
377.335
431.301
442.758
432.042
443.428
432.061
427.302
276.008
423.73
297.525
453.028
232.29
384.769
228.481
5.31958
334.93
-2.29508
161.613
264.873
-1.64815
413.189
433.075
408.852
431.615
209.655
429.728
409.214
290.88
417.499
400.547
147.28
431.454
285.99
-24.1597
-13.4571
273.467
-0.0169872
257.782
-2.5313
434.176
-25.1689
-63.2277
431.223
430.28
430.75
433.704
420.33
-75.0067
-122.478
429.972
409.28
432.842
-76.4031
-134.481
-116.699
431.874
285.182
-124.532
-91.4525
-20.4283
-82.664
-12.5797
312.415
-5.07359
-74.6506
-16.958
-61.4212
-24.0688
-46.5673
429.68
-18.0529
-57.8998
-128.616
-68.6716
-112.087
-119.906
-77.116
-108.582
-135.544
-141.674
-142.098
-123.047
-102.187
-138.317
-139.934
-30.2754
9.13939
-11.8741
-1.0593
-57.2176
28.1978
-40.6784
-104.623
-38.4349
-55.9309
-68.1113
-116.506
-44.5622
-68.2913
-4.76396
13.1915
-5.40747
35.0028
-34.1834
19.373
-29.0559
-10.2546
-14.7842
-38.4517
-56.2789
-27.6723
-5.2647
13.9179
-4.07934
13.5011
-23.218
14.0139
-8.26169
-12.0702
-5.90893
-5.20687
-21.4851
-22.1566
-11.861
-9.76562
16.2311
16.3045
15.9645
8.10917
11.3941
-5.71963
12.1437
-4.98986
9.65401
-1.69705
-4.26375
-8.17756
-8.18949
-4.11512
-3.82682
-0.805819
-5.53652
-1.2938
-1.56846
-1.20876
-0.994736
-2.27841
-1.12656
-1.24339
-0.43093
11.1145
9.47161
-1.26614
-2.67276
-3.04702
-1.80711
-1.35942
-1.30184
-0.345455
-5.87952
-5.77504
-7.52517
-6.71898
-6.63623
-8.97151
-12.9794
-7.53414
-10.5068
-8.25309
-11.3483
-14.8667
-13.1003
-11.0636
-9.31196
-13.827
-12.8396
-8.6284
-6.02918
-8.43599
-5.34011
-9.70856
-7.02295
-3.94987
-1.66129
-4.61698
-0.194332
-4.45893
-1.83946
-17.3513
-5.6236
-21.9421
-7.47612
-12.6108
-7.9452
-15.3021
-16.205
-23.3428
-17.6186
-16.1758
-15.7963
-20.3425
-19.2259
-25.626
-7.18314
-20.1068
-11.4474
-29.7036
-19.0006
-26.8969
-26.5519
-38.7048
-35.5748
-45.1545
-143.354
-14.6932
-53.2735
-54.3669
-154.947
-148.702
-115.466
-60.6176
-58.487
-174.113
-145.311
-38.014
232.961
-140.86
115.063
-53.6139
313.691
432.861
-160.403
-144.238
-199.704
-77.3673
-159.377
436.826
439.579
-183.034
-207.11
-164.87
-185.444
-160.947
439.069
-43.5167
-114.394
-27.8575
-147.643
-60.7988
-22.3151
-3.23063
-15.1309
-0.359565
-15.9511
-3.09967
-7.03121
1.83743
-205.106
435.716
437.284
436.87
438.903
433.774
436.43
-146.409
436.952
402.874
438.102
420.769
435.516
420.568
-19.4043
405.784
290.537
429.958
-8.09439
426.915
215.401
2.93727
292.658
2.30086
-2.2469
3.30014
270.304
1.29015
558.154
435.29
427.339
435.549
357.985
435.11
363.752
268.171
415.419
254.035
416.095
276.792
443.775
16.4326
1.87637
319.084
308.554
4.49449
228.925
-115.442
384.604
436.95
419.22
435.26
440.279
429.356
491.916
203.392
439.089
265.289
437.926
137.59
402.231
167.062
-0.202112
356.039
-23.5919
208.824
326.077
583.455
430.775
593.843
426.86
437.56
421.343
373.322
223.602
432.372
210.317
340.635
164.896
326.588
268.904
-22.2412
231.85
-29.204
224.79
271.018
532.063
416.999
413.345
416.774
410.726
415.07
412.126
414.492
429.043
422.119
429.526
418.767
421.626
419.41
422.409
472.117
431.355
491.794
420.495
374.152
421.741
349.641
176.458
451.721
70.6107
329.242
267.556
275.505
239.512
163.545
268.268
495.341
239.228
762.906
453.964
433.528
211.63
424.864
394.662
429.167
432.204
210.962
395.095
193.928
264.638
184.86
441.407
235.809
373.979
-2.22235
210.924
721.104
265.211
391.909
428.82
410.359
430.888
550.443
429.215
403.04
181.971
428.829
326.811
438.84
232.542
426.488
210.936
-28.8543
284.23
-1.24825
314.632
234.8
-2.57632
430.325
432.63
433.639
425.61
429.264
431.453
432.609
440.167
432.81
428.775
444.025
431.645
356.73
302.116
-85.092
424.187
235.365
342.684
295.924
-7.6108
-69.6664
-18.0282
260.599
-24.9674
297.855
-12.3529
422.548
186.235
28.2658
336.899
420.655
200.339
-40.4962
433.945
-34.3057
-59.7869
433.471
434.303
-47.1326
-50.4442
-120.546
-78.051
-111.694
432.941
324.743
-56.5369
-122.188
-91.8157
-123.584
-130.277
388.534
300.187
-132.025
-119.011
-19.2107
-80.8313
-25.0289
-20.8363
-73.3737
-24.0935
-66.1642
51.6354
-28.03
-48.815
22.4783
-43.0172
-117.142
-98.7451
-67.0309
-140.644
-57.7762
-119.54
18.9618
-20.9208
24.7235
-28.3988
13.3526
-6.99416
-21.9366
-25.2877
-42.589
-81.031
-21.7875
-31.3409
-11.5437
10.9441
-5.59545
11.6499
-0.948382
10.1781
0.669394
-18.3689
-8.88643
-9.88502
-12.7542
-16.9811
-7.70218
-11.3725
13.8246
8.13775
11.0492
14.8304
13.0357
9.75026
9.81696
-0.537177
8.49052
-0.457155
8.55771
1.8319
8.32781
2.55653
-6.75948
-2.85109
-3.65216
-3.85652
-6.2797
0.00110901
-3.13281
-3.97963
-2.38398
-2.13465
-6.60682
-5.41212
-3.16289
-3.13698
-1.80518
-1.85186
-0.563618
-4.28466
-1.9231
-2.65554
-0.675106
10.4351
6.81935
9.32669
-0.417288
8.59686
2.19287
-2.69722
0.8638
-2.52247
-1.86792
-2.56724
-2.99174
-0.418377
-2.69576
-0.403536
-9.5866
-10.4086
-9.05548
-8.3832
-5.63327
-4.75035
-0.218589
-7.51587
-6.07486
-6.40307
-14.0595
-7.37297
-5.69904
-6.16383
-10.2289
-7.44227
-10.458
-7.3254
-9.66018
-7.16377
-10.0736
-9.38003
-13.7136
-12.8554
-10.6889
-9.8844
-13.5345
-12.8692
-5.47237
-10.6733
-7.90978
-8.63447
-6.11014
-10.9535
-8.18317
-0.213952
-4.78479
-1.93049
-4.53952
-0.730203
-4.88044
-1.9545
-162.981
437.442
439.353
-82.3265
-154.738
439.182
439.003
-160.054
438.896
-177.473
-147.689
438.469
431.245
-60.0088
-22.7499
-120.758
-61.4207
434.996
-35.1977
-4.33775
-10.1465
2.11897
-29.5086
-6.23572
-24.0717