/*--------------------------------*- C++ -*----------------------------------*\
| =========                 |                                                 |
| \\      /  F ield         | OpenFOAM: The Open Source CFD Toolbox           |
|  \\    /   O peration     | Version:  4.0                                   |
|   \\  /    A nd           | Web:      www.OpenFOAM.org                      |
|    \\/     M anipulation  |                                                 |
\*---------------------------------------------------------------------------*/
FoamFile
{
    version     2.0;
    format      ascii;
    class       volScalarField;
    location    "45";
    object      p;
}
// * * * * * * * * * * * * * * * * * * * * * * * * * * * * * * * * * * * * * //

dimensions      [0 2 -2 0 0 0 0];

internalField   nonuniform List<scalar> 
146404
(
-5.62848
-2.47448
-8.93595
-4.7059
-10.2746
-5.73591
-2.91087
-1.1036
-2.5086
-14.6864
-1.02501
-5.59153
-2.09802
-8.78969
-4.44891
-2.62834
-5.30527
-4.10523
-3.18435
-7.47172
-5.63464
-9.09291
-6.41582
-3.28573
-3.62033
-5.77169
-9.55779
-7.63062
-3.42554
0.223633
-6.78999
-15.9647
-9.3403
-2.78049
0.874942
-5.1141
-13.5372
-7.82223
-2.78526
5.92097
2.5852
-17.8391
-2.84905
4.82609
-3.70994
-13.0929
-7.79819
-3.15049
3.53782
-2.02602
-8.25247
-6.69986
-3.45542
2.25826
-0.846062
-6.66134
-5.94778
-2.95647
-0.105618
-0.222825
-5.925
-4.77363
-2.70292
-0.026154
-5.80736
-1.95688
0.0678552
-6.19835
-14.9982
-8.70371
-3.95135
4.02051
-6.07774
-21.9837
-12.5359
-4.18785
6.20898
-7.83635
-29.5148
-17.2136
-5.0521
8.60615
-5.34868
-23.36
-13.4297
-5.6716
15.359
-1.54721
-29.1465
-6.04038
13.46
-6.1895
-24.6622
-16.3563
-6.41335
17.854
-2.90325
-25.1743
-16.5421
-6.68058
11.5874
0.0302642
-14.5365
-11.7209
-4.60088
8.02599
-1.30215
-11.6541
-7.11548
-3.4085
7.04782
0.575267
-11.1265
-1.80504
2.02851
-7.76945
-4.1799
-2.23281
-3.93095
-6.51854
-11.0008
-6.6622
-2.38119
2.60859
-5.13031
-18.0331
-8.06181
-3.04423
10.2415
-0.500509
-26.2632
-7.27123
-4.84742
15.4651
-9.45208
-30.0378
-18.4244
-5.66846
22.6584
-27.5502
-44.692
-31.438
-8.11584
36.2108
-32.9944
-52.8215
-26.0799
-10.2476
46.9079
6.72435
-52.6031
-11.2164
37.679
-23.7047
-59.1228
-33.7907
-11.0235
28.7255
-23.0627
-53.7353
-32.2452
-10.5208
27.485
-0.681588
-31.6984
-23.5454
-8.4022
19.8377
6.7387
-25.4118
-11.8
-5.66433
10.2975
0.928182
-13.6691
-8.72446
-3.90764
4.11534
0.862963
-6.21808
-5.86558
-3.15195
1.61562
-3.18958
-3.93843
-3.11511
-5.60939
-6.7292
-9.58298
-6.87256
-3.06701
0.860065
-7.24499
-18.4477
-9.61856
-3.04067
6.93536
-7.75504
-24.5643
-15.3347
-5.07283
29.3915
-4.48288
-46.2084
-18.3562
-7.01918
59.8004
-21.1751
-87.1103
-44.7755
-7.34655
103.696
-86.9139
-141.623
-64.2004
-12.2457
113.014
-113.481
-172.723
-61.0924
-20.6895
142.679
-134.149
-50.4772
-31.0932
118.478
-121.569
-178.843
-70.5532
-25.6761
98.2786
-61.6431
-140.342
-77.4553
-26.0297
64.0196
1.47239
-99.4999
-73.2773
-14.6349
36.7652
8.77258
-50.7467
-34.1519
-10.165
15.9766
1.58736
-20.3456
-15.0798
-5.09344
9.58687
0.141409
-10.2626
-8.64143
-3.50767
3.11472
1.97587
-4.92834
-5.71277
-3.07706
-8.50595
-6.69421
-10.049
-5.82034
-2.97364
-0.228708
-8.77591
-13.9373
-9.65944
-3.39839
4.66064
-8.20601
-29.6526
-13.1107
-4.12416
18.2578
-23.094
-71.547
-21.3695
-5.2193
64.5217
-117.192
-127.236
-44.7845
-9.01468
148.944
-107.38
-157.33
-65.3285
-14.0967
314.866
439.311
-70.2089
-15.0503
385.391
438.125
439.729
414.882
388.968
434.935
438.98
434.827
312.157
375.982
434.457
438.124
425.945
309.582
432.438
-80.2908
-23.5265
182.67
-105.278
-29.7368
68.0551
-47.9268
-136.127
-67.7961
-13.9735
22.1843
-0.920654
-40.894
-29.6325
-8.16931
13.9807
4.32706
-20.1215
-17.7876
-5.68184
7.93516
0.370772
-8.55668
-7.6786
-4.075
1.33413
1.09733
-5.59918
-4.30297
-2.81771
-0.657535
-5.39449
-16.5394
-4.19771
-1.95809
2.8838
-7.82334
-19.6767
-10.1958
-3.10808
11.7659
-9.38986
-34.5693
-16.9823
-6.03362
43.3483
-76.2989
-99.25
-32.5258
-8.49905
141.58
-82.0751
-156.893
-55.6872
-11.6288
379.454
441.822
442.358
-14.6728
417.185
434.757
438.484
410.42
305.402
418.401
431.303
435.844
442.508
333.42
417.036
429.839
435.907
428.114
285.345
413.05
429.28
434.031
418.869
334.002
394.272
429.615
434.923
403.152
297.615
349.343
435.435
436.993
427.411
-26.8623
166.779
-74.7813
-138.534
-81.8855
-31.7255
43.2373
-25.7696
-81.6605
-52.8916
-10.9895
22.4251
3.2991
-29.8106
-21.232
-5.22196
12.324
3.20621
-15.9567
-11.0076
-3.20665
7.20722
2.16945
-12.4607
-3.26192
-2.13724
-0.524509
-6.18034
-14.6643
-6.88628
-3.1412
7.16633
-1.39945
-22.997
-7.90051
-4.70493
27.8772
-23.2132
-8.68064
84.9097
-77.516
-126.443
-43.6344
-16.0475
308.13
-159.288
-54.4624
-16.8567
418.201
435.771
440.49
396.661
280.569
421.751
432.293
439.623
382.584
261.063
419.926
428.874
438.411
434.743
313.978
418.199
426.105
434.389
437.354
214.728
417.2
426.899
436.047
460.464
317.305
412.293
427.444
435.178
351.541
305.603
389.157
430.103
431.544
432.572
315.968
301.716
430.951
436.361
-81.7512
-34.2343
85.913
-60.4412
-170.849
-75.5941
-15.5098
34.2574
68.6372
-68.8701
-7.77602
15.5198
8.02099
-22.6208
-11.9426
-4.16995
7.22683
1.19208
-9.971
-6.11806
-3.17849
2.47048
-6.07973
-3.90185
-2.25456
-4.86232
-7.7432
-5.50923
-3.32746
1.12938
-6.24525
-15.9887
-9.09335
-3.02823
8.07258
-7.58314
-29.5788
-15.0676
-4.83876
29.8024
-27.4536
-51.5628
-27.7808
-8.17736
97.0439
-95.0627
-181.861
-54.7398
-17.6228
383.93
440.957
442.558
443.093
-19.7716
421.435
434.63
439.391
392.656
270.145
421.674
430.69
438.301
466.109
187.97
419.874
426.4
430.738
303.341
244.028
414.331
422.587
417.53
349.158
253.541
415.946
423.068
425.313
296.588
237.251
415.592
426.142
434.284
447.642
165.186
402.162
426.784
431.708
416.125
255.888
349.693
434.07
437.486
388.953
318.42
124.882
-72.0107
-159.656
-92.7961
-32.0033
25.8412
-2.79098
-48.8419
-25.2657
-8.9009
15.1568
1.04575
-17.0302
-13.7304
-5.06358
8.46619
2.95316
-8.62359
-8.16934
-3.80699
0.86832
2.33756
-3.33195
-4.15034
-3.02003
-11.4172
-4.85226
-7.52899
-5.55014
-3.55507
1.19573
-6.208
-15.8633
-8.9698
-3.04968
8.20974
-7.75514
-29.8628
-15.5262
-4.93156
28.1665
-33.497
-66.6994
-37.1886
-8.61871
118.075
-67.9686
-150.328
-62.9172
-17.9713
389.864
441.742
441.654
424.791
421.894
435.349
439.937
445.023
342.438
422.402
431.084
446.204
453.133
213.356
417.512
426.536
420.445
342.482
272.519
413.04
422.156
408.976
345.092
263.865
412.772
422.819
415.499
345.66
258.753
416.968
426.829
432.968
461.574
216.28
405.806
427.639
432.884
446.529
255.12
356.56
433.67
436.169
418.829
325.165
139.072
-52.6631
-151.665
-87.0432
-31.4956
23.8083
-6.42241
-44.3753
-30.6929
-9.69008
16.5141
0.570588
-19.8053
-14.5142
-5.29656
9.0352
2.77626
-9.05675
-8.59173
-4.04095
1.07415
2.35247
-3.56872
-4.50616
-3.57185
-4.68645
-7.49914
-5.23871
-3.21923
-0.728132
-4.75437
-12.2387
-8.10908
-2.92333
7.40433
-4.13807
-22.4488
-13.3581
-5.3264
33.429
-13.3152
-47.4066
-28.7755
-9.66936
119.233
-102.317
-167.929
-69.1656
-13.7902
377.568
440.65
442.465
416.603
-16.4782
419.606
435.655
439.423
429.301
276.13
423.289
432.912
442.949
445.185
211.611
421.681
428.537
433.632
330.473
241.214
418.568
425.35
422.669
341.095
267.764
419.788
426.154
430.59
335.633
257.233
416.431
429.474
437.86
444.97
142.024
402.771
431.041
434.189
355.589
265.078
340.485
438.097
437.654
427.41
325.749
106.95
-58.5812
-170.255
-95.7052
-15.2559
34.0574
-0.422543
-50.8425
-35.6075
-8.00124
15.841
3.94135
-18.2453
-15.4183
-4.34795
6.82525
1.58264
-8.4082
-7.47066
-3.8459
0.384116
2.03897
-3.70644
-4.50739
-2.81127
1.28886
-4.52575
-13.9973
-5.44554
-2.3047
9.15005
-2.66364
-22.5975
-3.48187
-4.32064
26.9857
-12.1413
-7.0273
74.1955
-52.1461
-134.514
-57.8362
-13.0383
290.231
-159.162
-81.3701
-20.2425
400.874
437.399
440.555
443.453
295.474
419.891
434.33
439.852
435.708
227.087
422.104
432.696
438.498
449.286
335.679
421.77
434.328
451.928
450.28
232.338
418.539
431.304
437.774
436.014
259.569
411.978
431.229
435.612
376.518
258.491
388.531
435.864
435.238
376.481
302.754
294.246
435.743
438.642
-73.3258
-26.1602
63.6395
-67.0186
-139.673
-69.7579
-9.83955
24.912
7.83736
-50.8063
-4.92089
12.3143
9.6918
-26.0649
-14.8603
-3.468
5.79276
4.383
-12.4344
-8.1505
-2.81785
1.40922
-7.08182
-4.49869
-2.54516
-1.73662
-6.07868
-15.6366
-5.62109
-2.32075
2.80628
-6.6891
-15.6244
-9.5966
-3.8122
10.6878
-7.53912
-31.779
-19.3015
-5.87216
35.3215
-35.5156
-79.2401
-38.4241
-8.7445
131.463
-58.6758
-136.12
-80.7438
-19.5862
335.341
443.203
443.943
-20.9601
396.721
438.38
439.966
434.556
268.072
409.496
434.489
438.819
452.105
255.018
411.525
434.33
443.508
362.873
177.327
406.533
433.722
437.278
446.492
264.011
388.454
437
436.022
407.988
294.552
341.101
438.918
439.096
348.079
-23.2589
94.0535
-114.368
-137.038
-73.4361
-9.4117
12.0604
-10.7471
-40.07
-22.4606
-7.0111
6.21571
-5.69076
-28.8557
-18.5231
-4.9875
4.35684
-6.57471
-16.0155
-9.26079
-3.8136
1.7775
-3.17798
-15.4147
-5.02705
-2.36778
-9.60245
-5.4629
-8.84235
-5.64599
-3.26683
-1.66381
-5.819
-10.277
-7.70785
-3.54736
4.25952
-5.02787
-18.9508
-11.71
-3.53758
18.1093
-8.27345
-32.0483
-24.071
-7.34899
51.3668
-38.4198
-83.0753
-44.7796
-8.08926
122.997
-73.6627
-153.022
-79.8984
-20.4596
283.78
440.337
-127.904
-62.1848
-22.6765
356.9
439.54
442.385
398.046
364.513
440.39
443.135
407.775
326.545
354.702
440.073
441.084
426.947
284.82
438.189
-60.6888
-18.6611
97.3449
-64.4955
-9.8452
35.3033
-34.3287
-66.7274
-36.4754
-7.16816
6.03952
-6.16184
-22.3979
-12.912
-3.96991
0.864816
-6.78527
-14.1193
-8.7522
-3.23785
-0.935777
-5.20097
-10.5034
-7.51891
-3.365
-4.61271
-4.43453
-8.72037
-5.71436
-3.053
-5.61366
-4.90964
-7.87389
-5.97744
-2.76781
-0.158
-4.49555
-12.2267
-7.45174
-2.78313
7.09739
-4.44987
-19.7996
-12.9392
-3.96695
23.6814
1.68303
-40.4497
-18.9207
-5.51863
38.0238
-25.637
-60.5012
-30.1735
-7.60113
52.6356
-94.1929
-104.68
-45.8187
-10.2962
73.1603
-149.599
-110.674
-45.5141
-14.9118
81.0662
-149.436
-49.5996
-16.2742
74.9677
-132.453
-128.721
-50.6178
-8.01671
47.8824
-88.0188
-103.657
-42.7963
-8.30781
31.095
-18.6398
-67.8438
-35.6459
-6.36812
16.0104
-4.73681
-44.813
-17.2556
-4.12912
4.47403
-5.0295
-18.7065
-12.3581
-3.34376
-0.719157
-5.47631
-11.683
-8.43161
-3.71021
-4.12714
-4.82197
-8.56569
-6.88365
-3.5548
-3.04112
-5.16431
-10.2242
-6.1335
-2.66242
3.43684
-3.33929
-16.9519
-7.9448
-2.96731
7.11535
-3.13948
-22.5251
-6.81056
-3.69197
6.88933
-5.09757
-21.7814
-12.6747
-4.41824
9.33134
-8.20553
-28.8024
-15.7661
-4.90832
23.0516
-11.925
-38.3556
-23.5923
-5.56561
29.0008
-21.9908
-32.6289
-5.66016
10.7942
-17.2255
-42.9993
-15.2757
-5.0455
6.12671
-6.74635
-25.5115
-14.422
-4.6558
7.96815
-6.31349
-23.6159
-16.2534
-4.23377
5.16451
-1.9405
-24.6601
-10.9806
-2.911
1.01787
-3.30374
-17.2593
-7.24474
-2.74399
-3.64105
-4.88344
-9.97031
-6.75255
-3.31517
-4.60856
-7.39608
-5.42239
-3.56328
-0.637309
0.38833
-1.65902
-0.72656
-4.675
-11.0577
-6.42664
-2.99431
1.91161
-4.18395
-12.3445
-8.57215
-3.68531
2.24783
-5.25025
-15.0279
-8.23623
-2.61571
5.77289
-3.97777
-17.6859
-11.1924
-2.796
9.54886
-6.42379
-13.3058
-2.91323
1.82483
-8.7568
-19.913
-7.90242
-2.92245
2.6788
-6.05162
-13.3029
-7.9373
-2.94102
-0.732864
-6.11513
-12.9499
-8.80622
-3.68961
-2.26202
-6.02164
-12.4427
-7.18691
-2.97511
-1.20436
1.59345
-19.4696
-9.35781
-1.85302
-11.5443
-4.28288
-2.34007
-8.03419
-4.23738
-7.71392
-4.54727
-2.79782
-4.30496
-4.20305
-7.2164
-5.90888
-2.99906
-2.20037
-3.95781
-9.2297
-6.62343
-2.96731
-0.472701
-4.37394
-11.2417
-6.39722
-2.85194
2.7028
-6.43841
-7.54237
-2.70734
-1.54865
-7.41468
-12.3951
-6.94829
-2.96058
-4.47628
-6.52385
-9.71815
-7.13107
-3.20314
-5.77448
-5.87369
-9.08314
-6.97778
-3.46159
-7.89512
-5.51383
-8.93312
-5.82252
-3.0367
-9.04347
-3.56716
-8.35207
-4.88796
-2.54314
-6.31991
-6.7717
-2.66568
-1.35646
-9.62376
-5.72297
-11.0946
-5.65528
-2.71939
-5.54086
-3.43478
-8.67393
-9.16824
-6.68042
-5.75191
-3.41909
-2.94272
-0.121622
-6.12452
2.25537
-9.29494
-8.65999
-16.9345
-9.64019
-6.83069
-17.4271
-7.22614
-5.64526
-3.26737
-6.59603
-1.40042
-2.80687
-0.215676
-1.29551
-0.116974
-5.76811
12.6131
-0.418337
-2.73146
-1.61079
-8.67965
-9.07961
-5.66291
-17.1002
-1.32206
-4.13795
-2.65095
-1.20841
-0.0336125
-2.38502
-0.175616
-1.15065
-2.11871
-7.95438
-8.4295
-5.53825
-4.10982
-2.7695
-2.48414
-0.194048
-5.20009
-5.52395
-8.65324
-8.98989
-6.93608
-5.86725
-3.70417
-3.22574
-0.0577925
-11.3694
-5.29988
-6.89916
-5.16601
-5.57611
-8.44116
-5.54131
-7.40153
-8.77143
-6.88551
-8.34238
-7.41848
-5.92104
-3.76037
-6.44976
-4.5042
-3.26863
-0.133605
-3.6118
-0.613528
-6.18916
-4.99255
-4.19021
-4.6142
-5.43526
-7.41242
-5.37098
-8.0856
-8.34086
-7.76109
-9.41691
-8.52235
-6.7694
-4.56978
-7.49858
-4.95466
-3.56562
-0.531897
-3.76059
-0.688756
-9.3903
-4.49648
-3.91174
-4.16992
-2.73786
-3.34403
-4.84538
-8.49152
-5.33342
-7.6191
-5.19231
-8.76581
-7.40118
-9.32167
-7.42032
-10.1215
-9.32095
-11.6243
-10.5867
-4.48875
-5.53883
-3.80182
-7.17395
-5.26406
-7.85523
-5.49803
-3.03337
-0.263098
-3.17932
-1.14427
-3.11867
-1.08224
-4.15059
-2.04373
2.31892
-1.3996
-2.06484
1.43532
2.83628
-9.56093
-5.44983
-17.2583
-5.38859
-9.62595
-9.90416
-20.4598
-7.74879
-17.6012
-8.74519
-11.6025
-9.56923
-21.3318
-11.3433
-3.71237
-3.06938
-1.95876
-6.29354
-5.04021
-3.71569
-1.88854
-0.543826
-1.55399
-0.498626
-3.21365
-1.29869
-1.97836
-0.977579
7.77955
-5.20658
-0.292743
3.66087
12.5573
2.03835
1.31757
-1.92533
-8.4035
2.04982
-1.58749
-9.57115
-9.06143
-6.30166
-13.3132
-10.4563
-9.19228
-1.39851
-4.05955
-2.78919
-17.1809
-3.10554
-6.76212
-3.92316
-0.347769
-2.28105
-0.300622
-2.58585
-1.10503
-2.89907
-1.29477
-1.23082
-1.16626
1.32879
0.0966134
0.78121
-0.26212
-7.92034
-1.37582
-5.09918
-2.95616
-7.62062
-2.86951
-5.71982
-6.56203
-5.68622
-4.98054
-10.4148
-9.43246
-7.92225
-7.25413
-3.15656
-4.22806
-3.13223
-5.82055
-3.97492
-6.03396
-4.51462
-0.441984
-2.86892
-0.144532
-2.77462
-1.17994
-3.00048
-1.24271
1.09301
0.169872
0.225718
0.354866
-4.65795
-1.60268
-3.84017
-0.641163
-4.02728
-4.70769
-6.41917
-6.80517
-5.48725
-6.02962
-3.2106
-5.5452
-4.32667
-5.47982
-4.01487
-0.0855863
-2.78659
-1.13876
-3.24121
-0.57568
-0.158158
0.293964
-2.05078
0.375214
-0.599286
-3.85753
-0.0958582
-3.72849
-5.27367
-5.68999
-5.15257
-5.15894
-5.2396
-3.78248
-4.27189
-3.27854
-3.10716
-0.534014
-2.67176
-0.495965
-2.70827
0.42191
-0.0249487
-4.64186
-5.31089
-5.03194
-4.42915
-3.14306
-2.79979
-0.336932
-4.38002
16.1809
-2.85369
-2.26412
-1.80228
-0.313131
-9.62017
-5.09348
-2.88363
0.980338
-3.14455
-3.07341
-5.4385
-9.15524
-9.57834
-6.45296
-11.4572
-9.615
-7.74655
-11.4737
-12.9214
-10.7501
-5.87309
-3.71067
-0.222586
-2.91658
-6.15618
-3.83383
-2.91863
-0.391756
-2.20297
-0.458076
-2.53663
-1.00189
-4.96434
-4.73269
-4.49958
-2.96427
-3.05043
-1.98673
-3.0553
-8.48587
-5.76872
-7.74726
-6.08742
-10.1605
-5.95198
-9.64705
-7.8212
-9.40617
-9.1862
-12.0604
-10.9519
-12.0756
-11.1496
-4.16415
-6.94382
-5.29223
-7.56547
-5.26137
-8.40621
-5.99268
-0.456209
-3.03878
-1.17142
-3.34975
-1.41444
-3.57731
-1.43197
-10.8228
-9.51631
-21.196
-5.30662
-13.9324
-2.76672
-29.3759
-11.5488
-22.3176
-12.1786
-17.3815
-14.8496
-30.1152
-18.3839
-1.43867
-10.8363
-1.65879
-0.475139
-15.7661
-14.4984
-11.761
-10.5914
-21.1464
-17.6153
-15.9682
1.75476
0.271676
0.887288
6.33965
3.64666
4.84179
3.71038
1.00058
4.26949
3.60167
5.2186
6.41649
-4.70129
-1.07612
-6.74262
1.973
-13.2833
-5.79966
-9.6476
-8.76554
-13.6852
-7.91577
-3.29345
-5.9516
-3.91979
-3.58171
-3.48523
-0.494606
-2.66596
-1.15222
-2.3699
-0.519382
5.04223
9.30949
4.28119
-15.1737
2.14081
-8.7335
-15.6137
-8.74128
-9.66325
-5.89017
-6.85602
-1.63782
-4.149
-1.68602
-1.4016
-0.42916
-1.58319
-0.289305
-7.34415
-5.55403
-6.25575
-8.86099
-9.64598
-7.54934
-5.98092
-3.69281
-2.85323
-0.492129
-2.63884
2.72428
-5.73997
-4.96463
-1.92237
-2.44052
24.7423
-6.52171
-9.43565
-5.77703
-14.4562
-33.6975
-10.7729
-9.1402
-15.0817
-10.0386
1.22133
-2.76894
-5.57056
-3.8504
-5.45013
-3.74267
-2.05276
-0.52669
-2.40121
-0.90304
-2.4435
-1.00543
-5.22012
-14.6545
-4.8208
-17.4786
-2.25619
-26.6169
-15.3707
-11.4991
-17.8106
-9.94931
-25.2151
-15.7008
-19.0372
-2.90532
-31.4803
-11.1113
-30.2145
-6.12576
-59.4398
-20.4376
-32.1207
-21.2486
-35.1095
-29.4964
-52.4198
-39.2951
-0.780092
-19.1941
4.64217
-1.35324
-36.0403
-23.6124
-21.1826
-19.8045
-43.2443
-39.0458
-32.8557
-10.0463
3.03494
-14.5364
5.11987
-18.418
7.02101
-16.5042
-10.8336
-14.8338
-8.69373
-21.3485
-17.8748
-17.7107
-12.939
11.4735
-1.07121
3.7227
8.3366
8.62726
5.17482
4.80474
2.02735
-7.65574
4.27431
-11.7144
0.962604
-5.12542
-9.40788
-9.44181
-6.68271
-14.8416
-11.8626
-8.93976
-8.524
-2.21348
-4.05593
-2.42838
-7.57168
-3.94695
-5.66999
-4.19974
-0.893153
-1.87362
-0.460799
-2.90567
-1.24775
-3.03237
-1.35245
3.35913
3.38456
3.02291
1.93629
-6.77726
1.50596
-4.43765
1.51736
-2.61931
-5.70067
-6.36156
-6.5137
-3.43719
-4.59407
-2.59855
-5.73612
-3.81862
-3.97545
-3.56833
-0.260265
-3.18325
-0.650026
-3.1905
-0.224676
-9.62476
-6.46131
-6.3784
-7.8292
-8.32427
-6.93351
-5.88183
-4.10767
-3.2721
-0.440309
-6.35665
-5.51593
-7.81924
-6.24827
-4.73219
-5.19143
-6.55023
-8.0415
-6.52579
-8.14719
-6.77669
-8.95514
-9.44319
-8.49901
-8.58861
-7.47862
-10.418
-9.47418
-6.08627
-4.55035
-6.30783
-4.20082
-7.00231
-5.09292
-2.775
-1.08649
-3.18899
-0.481513
-2.95329
-1.16541
-17.8612
-4.99509
-30.5896
-6.8074
-17.2783
-2.61442
-31.5416
-12.7552
-27.09
-21.0796
-20.6204
-17.7729
-32.9964
-23.4266
-27.7577
-8.30041
-25.6462
0.99384
-39.9286
-6.60392
-52.3422
-16.6022
-27.2383
-25.3367
-39.9001
-24.4334
-59.1532
-42.5105
-51.9709
-5.59797
-68.8635
-125.368
-161.983
-111.391
-174.587
-42.5522
-60.151
-45.6401
-109.516
-67.3046
-160.006
-54.2327
-8.12165
-48.8299
-72.8355
-97.6155
-170.905
-48.9952
-51.4517
-42.7727
-53.7318
-145.895
-68.8995
-20.7828
5.30872
-22.3853
5.64627
-60.0821
47.7977
-31.7161
-26.1159
-24.426
-76.1562
-69.3998
-57.414
-23.355
5.52315
-15.8403
17.8737
-46.7438
5.63333
-16.3568
-19.1245
-18.9374
-15.3765
-45.1924
-45.0098
-21.1289
-22.7822
3.9932
-3.21867
2.28322
6.37895
4.68344
3.53958
3.26993
-2.73985
1.42853
-2.02846
1.52501
-3.34668
1.74507
-1.29925
-7.06679
-3.76728
-4.90163
-7.83553
-8.5274
-5.42606
-6.53738
-4.53711
-4.14887
-3.67715
-7.80031
-5.73289
-6.22077
-5.16034
-1.41857
-3.11201
-0.543889
-3.86328
-1.77034
-3.35556
-1.49893
1.91457
1.96906
2.37898
-2.30676
1.75008
-2.09294
-4.41701
-4.27442
-5.42535
-3.52047
-5.34342
-3.98754
-0.263565
-3.26082
-0.675961
-6.95526
-9.30589
-9.45882
-6.38476
-5.84791
-3.25708
-3.01957
0.246286
-8.28751
-6.37526
-12.0449
-6.42639
-4.95602
-5.90178
-6.54753
-8.05441
-6.67366
-9.15903
-7.09295
-8.71516
-8.55101
-7.47485
-9.30766
-6.48008
-9.80284
-8.80775
-6.27109
-4.07456
-5.83
-3.3088
-6.46204
-4.59157
-3.14605
-0.467006
-2.96583
0.0390823
-2.68002
-0.994815
-45.8083
-8.03088
-70.0346
-39.4218
-84.0816
-91.74
-165.625
-31.6072
-71.5273
-60.1101
-81.399
-53.1251
-157.134
-87.6327
-86.2042
-95.7474
-138.418
-5.47746
-91.4941
-151.333
-70.2669
-138.848
-106.539
-98.1408
-155.391
-97.45
-144.331
-93.3321
-184.088
-147.444
438.242
441.069
-107.701
-170.295
-86.1945
-146.307
-89.192
440.431
-29.3831
-60.5801
-33.6298
-65.975
-24.0684
-24.5017
-3.47522
-15.656
-4.80472
-16.5926
-4.06188
-15.7219
-1.95921
-99.0677
140.407
-185.754
337.966
433.923
349.529
429.708
-191.796
-178.015
-180.548
439.654
440.908
437.127
439.767
-76.681
-172.081
-50.8736
440.198
391.725
439.308
370.069
-39.3396
-49.7132
-40.265
422.489
-24.3018
446.439
-6.46755
-29.4642
-7.26499
-19.5642
-2.27222
-0.98783
-144.214
123.976
-149.005
349.898
430.016
342.784
428.292
-145.274
-194.793
436.736
439.074
436.415
438.837
-50.961
-173.203
-75.8161
438.823
405.382
438.398
363.496
-39.0041
-60.5333
-43.037
431.869
409.036
-30.778
-9.22715
-23.8446
-8.8776
-0.711954
-25.4267
-2.62051
-194.592
-64.3386
-159.86
436.426
439.003
434.593
-89.9186
-159.047
-111.769
438.537
388.907
-93.5142
-41.9511
-72.5102
-45.7179
420.144
-31.4067
-81.1888
-37.9694
-8.68948
-25.1844
-6.65551
-26.3069
-3.55694
-25.4246
-3.21823
-119.481
-58.3145
-111.693
-124.909
-53.998
-107.415
-125.436
-136.131
-123.091
-126.836
-100.489
-117.936
-121.314
42.1747
52.672
40.505
109.891
20.4541
75.0052
28.542
-82.078
22.2645
-64.6755
-17.3449
-101.146
-91.0527
-59.3612
-63.905
-123.501
-122.961
-40.5182
-57.8857
-31.9972
-110.699
-57.1904
-92.6776
-47.1311
-39.675
2.8824
-18.9811
-17.2079
-53.2123
-3.07914
-31.0141
-50.0215
-28.7814
-34.2428
-81.1432
-83.457
-43.741
-51.529
2.63832
5.16199
3.68851
1.92126
2.4527
-1.00383
1.50101
-2.31473
1.39186
-3.03688
-5.85571
-6.34618
-6.99901
-4.64264
-5.30951
-4.51855
-6.34641
-4.89376
-4.55321
-3.40206
-1.33951
-3.17413
-1.36779
-2.79729
-0.557992
0.68925
2.09359
1.50273
-3.58997
-4.49196
-4.79225
-3.84738
-3.15252
-2.92979
-0.300619
-12.6991
-6.9645
-5.07927
-2.85386
-7.20595
-9.73383
-7.43902
-14.4956
-9.82752
-6.19968
-14.5309
-7.61859
-5.57999
-2.82457
-3.96285
-2.57047
-3.63361
0.116117
-1.98889
-0.422697
-6.05933
-3.91915
-4.99707
-3.71539
-4.17041
-1.67501
-3.75633
-9.88624
-7.66694
-10.2764
-8.22697
-13.165
-8.39215
-12.7497
-7.54203
-11.6175
-10.2557
-13.2024
-10.0871
-13.9471
-11.7295
-3.58968
-7.25653
-5.04439
-4.80268
-3.47207
-6.83258
-4.53424
-0.371015
-2.96378
-1.15046
-2.24748
-0.910941
-2.84612
-1.17076
-165.517
-121.676
-171.078
-73.607
-195.655
442.488
-79.675
-158.808
-85.9031
-154.416
-91.3514
-74.4031
-165.149
-154.576
442.461
443.084
436.457
440.833
-86.7879
-157.863
-83.2328
442.915
-70.4061
439.142
379.335
-24.8852
-70.4987
-25.3588
-54.4268
-21.0394
428.136
320.535
-4.22752
-16.1642
-1.89369
-14.383
-1.55561
317.776
437.955
440.845
437.096
439.672
434.369
437.767
-82.9433
440.143
465.548
437.789
409.782
436.842
418.699
-23.4763
428.732
410.295
317.346
422.06
348.711
-1.50717
-13.8607
-0.582415
319.646
20.313
278.162
7.70625
440.263
435.785
437.943
431.61
436.421
430.758
435.059
406.509
439.368
348.309
436.514
416.276
435.659
445.961
453.844
357.24
443.911
313.323
448.301
247.624
-0.412811
334.88
0.649849
246.726
3.41308
304.154
1.00559
437.333
435.513
438.44
430.161
434.449
429.455
434.033
408.416
437.648
395.094
435.558
438.039
433.633
478.803
327.67
414.994
327.813
428.49
297.883
374.599
293.844
0.605857
-0.49662
297.452
298.069
5.53152
438.6
434.258
438.516
430.296
434.641
432.398
435.711
377.421
437.888
-91.7239
434.183
418.593
433.757
380.893
-78.2185
-32.1213
355.944
223.41
414.97
279.563
-0.570055
-25.0057
-3.50748
238.407
6.25801
316.573
-2.95892
438.245
-59.4945
430.3
436.18
435.741
437.511
-94.125
-118.518
435.66
554.374
436.689
414.702
-33.708
-105.552
-42.7353
408.229
326.585
399.926
-35.1276
-4.9937
-33.8838
-7.88378
306.675
-14.9552
-26.8621
-5.08622
-88.729
-115.202
433.357
437.683
-66.0762
-120.762
-145.133
-145.59
437.16
414.087
-130.666
-124.172
-52.1719
-103.093
-60.4532
-38.1983
-91.426
-65.5424
2.51727
5.66971
4.96869
-4.0046
1.43224
-9.52035
-5.26779
-10.529
-6.90036
-3.24384
-3.89508
-2.32093
-0.508281
-2.21524
-0.521708
-3.30333
-1.9066
-2.01531
-0.682645
-6.7441
-16.8498
-3.27323
-14.4702
-16.2305
-5.74584
-15.0047
-10.4429
-1.12245
-2.32571
-6.42228
-3.02406
-1.64887
-0.465307
-2.37702
-0.518201
-0.862957
0.8768
-2.15639
0.719
0.444554
3.52368
3.42443
-16.6389
-6.85401
-18.1825
-3.06027
-14.9429
-3.98985
-22.9031
-7.41065
-18.1961
-12.6785
-15.6709
-11.7734
-24.0555
-8.3702
-3.20978
-9.41742
-3.82914
-8.58862
-3.33194
-2.31323
-4.8397
-19.1541
-9.14244
-24.8467
-5.89237
-24.9674
-10.0801
-15.1157
-27.4575
-22.2398
-25.7486
-8.99357
-33.2291
-29.1513
-25.6339
-46.0083
-10.6089
-52.2974
-34.2346
-102.221
-31.0465
-49.8901
-39.9533
-47.9744
-39.2549
-96.9522
-52.3081
-122.198
-129.613
-180.117
-70.398
-134.381
-130.921
-183.12
-61.7312
-160.366
-91.3797
-122.614
-76.3505
-159.13
-78.5845
-173.223
442.532
443.453
-175.513
437.746
442.086
-77.4001
443.144
-70.0814
-161.731
-65.5023
441.413
463.352
-23.7482
-54.8594
-20.5256
-48.7317
-22.488
410.928
299.742
-3.64065
-14.1176
-1.82499
-16.117
-3.69709
313.074
2.58402
440.142
421.276
440.808
375.043
440.456
386.695
-19.9016
437.646
317.695
355.784
277.108
383.124
155.817
-1.21878
307.237
309.738
-6.43263
285.462
-0.463213
427.154
437.086
363.722
440.453
413.986
437.804
460.35
312.626
421.047
302.69
424.553
271.181
444.046
248.583
3.45553
336.685
7.23622
288.068
-1.61824
228.773
-68.4057
417.616
435.728
443.771
436.481
563.978
435.395
627.062
321.077
446.92
223.069
430.131
250.103
436.606
284.496
-0.0290439
304.901
3.65046
112.303
276.495
-40.0307
433.827
433.684
419.689
436.334
472.509
435.741
432.509
273.35
367.671
305.911
432.441
10.5219
441.331
196.795
268.94
0.722493
197.286
-73.7173
378.341
434.464
445.241
435.339
451.441
435.082
424.705
276.226
426.64
299.379
455.381
235.37
391.68
235.233
3.50506
338.997
-2.72383
168.113
270.973
-2.22879
414.201
436.726
412.455
434.69
214.632
433.011
413.476
294.609
420.982
405.369
154.546
433.943
287.264
-25.0264
-2.60242
277.2
0.372124
257.7
5.11481
437.753
-64.9507
-128.299
433.952
433.831
432.105
437.516
423.694
-134.824
-112.72
433.508
414.177
436.331
-36.0619
-89.0894
-49.6599
434.451
287.527
-83.8991
-41.4692
-5.25912
-35.2095
-3.47523
317.988
0.375845
-35.1163
-2.15159
-128.742
-89.4657
-158.385
431.177
-85.0173
-191.288
-123.719
-163.613
-124.78
-96.3964
-188.629
-116.737
-54.7948
-82.3887
-55.6625
-84.7832
-46.1477
-77.0102
-54.979
-64.2589
-3.425
-31.1215
-59.9201
-153.458
6.96642
-58.9855
-73.8307
-43.9805
-46.3785
-141.097
-85.3143
-57.3545
-53.3039
-18.3583
1.88928
-14.8658
16.7135
-50.7437
10.3253
-28.0087
-17.3969
-16.6002
-50.1403
-41.969
-25.6609
-13.6243
4.75539
-11.2015
5.19736
-28.3873
6.96407
-13.3109
-14.4682
-11.9412
-8.61553
-26.2197
-21.1878
-15.8482
-11.3603
7.36839
8.04871
8.40358
0.517681
4.58308
-12.4653
5.44345
-9.98581
3.11581
-6.36139
-7.89106
-12.3061
-10.1095
-8.11329
-6.06866
-1.7371
-7.18872
-2.15124
-3.64741
-2.24185
-1.07347
-1.99816
-0.979652
-1.82981
-0.503826
4.25729
2.95848
-5.89786
-6.84365
-5.24526
-3.76646
-2.479
-2.12147
-0.345058
-2.50207
-2.65304
-4.75866
-3.70176
-3.80146
-6.11946
-9.98401
-4.78652
-7.49941
-5.53407
-8.37598
-11.5786
-9.72546
-7.99072
-6.24395
-10.5318
-9.3739
-5.60362
-3.59023
-5.49046
-3.72208
-6.53059
-4.5732
-2.3764
-0.992005
-3.24763
0.0898414
-2.8848
-1.18426
-14.0664
-3.54749
-18.436
-4.90764
-9.35857
-5.29098
-11.8066
-12.327
-19.1402
-12.4843
-12.6259
-11.8127
-16.2918
-14.1324
-21.6873
-3.99783
-15.7739
-8.02432
-24.9555
-12.9897
-21.7427
-19.6425
-29.9621
-25.3372
-34.3961
-112.891
-12.1159
-43.826
-65.6198
-141.67
-106.491
-46.6731
-45.4631
-35.8476
-123.181
-61.1019
-30.7799
235.367
-130.577
113.243
-80.7919
314.141
437.353
-137.18
-136.575
-176.643
-111.795
-176.344
440.932
443.446
-60.2093
-166.338
-75.7811
-161.493
-64.8558
442.973
-32.0448
-51.3394
-23.6099
-54.1138
-35.9798
-28.1225
-4.99164
-18.1587
-7.29255
-15.4044
-5.29894
-19.6768
-4.02836
-174.129
439.67
441.231
441.411
443.227
437.738
440.45
-67.2086
440.984
406.443
442.461
425.716
439.626
425.767
-21.4135
410.111
298.406
434.812
-24.5853
432.17
224.36
-3.56815
300.011
11.6014
-19.9237
-4.24602
277.706
0.733599
561.259
439.137
429.818
439.604
361.37
439.058
364.467
272.45
417.361
255.363
420.478
285.071
449.371
83.295
1.63829
317.203
316.643
3.51812
240.844
-103.842
387.183
440.919
422.952
439.319
442.539
434.039
499.803
197.646
444.202
257
441.381
161.74
413.296
167.458
0.0505418
381.236
-22.5549
208.067
339.079
588.278
434.546
601.146
431.685
446.05
424.657
379.582
209.034
438.295
215.476
354.382
168.245
343.386
266.982
-25.2734
236.555
-34.0609
235.127
263.176
480.869
421.299
417.246
420.741
415.996
420.614
416.79
419.156
432.883
426.145
433.221
423.268
423.477
423.655
426.908
479.398
435.045
499.898
424.535
379.729
425.457
360.303
180.987
458.975
74.0613
343.877
267.938
280.542
254.945
172.848
263.255
446.377
250.919
682.712
461.754
436.707
214.963
429.213
398.814
432.815
433.8
212.832
401.329
212.625
273.7
203.739
446.142
238.297
389.436
-2.16983
221.747
646.609
258.456
386.314
432.172
414.553
433.518
557.072
432.262
405.439
190.302
431.139
328.671
445.058
233.821
430.022
204.565
-25.63
284.736
1.79194
308.288
235.824
-3.76369
433.487
434.988
437.077
428.481
432.386
434.207
435.862
442.877
436.11
431.77
448.066
435.024
362.535
304.586
-40.5039
428.568
233.743
346.516
298.634
-6.26425
-34.1242
-1.80294
260.937
-25.627
300.739
2.94204
420.135
168.856
-21.3214
332.774
422.501
187.882
-75.8602
437.157
-113.967
-192.471
435.926
437.57
-84.8772
-158.6
-90.5322
-188.277
-94.1986
436.351
329.616
-160.9
-109.373
-43.8551
-80.4975
-52.2721
392.719
304.309
-89.5623
-51.8189
-2.4206
-31.0349
-7.56284
0.00221306
-33.4097
-8.4068
-175.929
28.7672
-67.2297
-149.247
2.05192
-75.6149
-88.8627
-58.4594
-161.402
-126.067
-88.844
-70.5396
9.30561
-27.6573
8.529
-44.6784
1.80414
-17.1761
-27.0134
-23.2497
-52.1101
-48.0443
-26.9183
-28.6827
-18.4922
3.81725
-11.0163
3.51456
-8.86282
2.78124
-5.89788
-18.0152
-13.198
-11.7379
-17.3163
-18.0429
-12.4447
-13.2249
6.23369
0.643637
4.21887
7.35491
5.72672
2.89347
3.30184
-5.8995
2.11517
-5.39711
1.8885
-3.94911
2.06958
-2.55813
-9.3734
-6.97744
-6.0636
-8.38262
-8.73202
-4.38204
-5.41092
-4.29037
-4.3626
-2.86678
-7.12756
-5.07564
-4.71152
-3.62515
-1.537
-2.27898
-0.541263
-3.40604
-1.53965
-3.02985
-0.596496
3.64232
0.0666523
2.89947
-5.19439
2.29717
-2.60032
-5.01999
-3.57182
-4.51417
-2.60106
-4.13198
-3.28621
-0.365377
-2.93776
-0.334269
-6.63543
-7.35096
-5.87793
-5.21593
-3.92727
-3.49779
0.159888
-4.82389
-3.16127
-3.73585
-11.4184
-4.87475
-2.90317
-3.62232
-7.25313
-5.01792
-7.70235
-4.86292
-6.73512
-4.87389
-7.35793
-6.29814
-10.3648
-9.4179
-7.63328
-6.6009
-10.1601
-9.36028
-3.80228
-7.08474
-5.06853
-5.62243
-4.24323
-7.3056
-5.35195
0.0413221
-3.0936
-1.24728
-3.45745
-0.472367
-3.28522
-1.33137
-193.511
441.661
443.36
-65.6313
-163.371
442.569
442.919
-71.6026
442.827
-152.928
-88.8782
442.431
434.833
-31.8267
-27.213
-66.2816
-27.5815
440.275
-21.9641
-5.64378
-19.5398
-4.05945
-18.3239
-4.61879
-17.1293
-2.47849
443.301