/*--------------------------------*- C++ -*----------------------------------*\
| =========                 |                                                 |
| \\      /  F ield         | OpenFOAM: The Open Source CFD Toolbox           |
|  \\    /   O peration     | Version:  4.0                                   |
|   \\  /    A nd           | Web:      www.OpenFOAM.org                      |
|    \\/     M anipulation  |                                                 |
\*---------------------------------------------------------------------------*/
FoamFile
{
    version     2.0;
    format      ascii;
    class       volScalarField;
    location    "32";
    object      p;
}
// * * * * * * * * * * * * * * * * * * * * * * * * * * * * * * * * * * * * * //

dimensions      [0 2 -2 0 0 0 0];

internalField   nonuniform List<scalar> 
146404
(
-3.96871
-1.40093
-5.8026
-2.97785
-8.3609
-4.23623
-1.41023
1.59511
-0.304591
-10.0494
-0.689943
-3.17711
-1.74021
-8.91053
-4.44596
-1.85826
-5.18675
-4.01399
-2.7225
-4.38771
-3.54859
-7.4986
-4.93057
-2.19728
-1.00354
-3.53278
-7.43958
-6.243
-2.67341
2.75829
-4.65859
-12.8556
-7.8116
-2.37017
3.42131
-2.90278
-10.7078
-6.37704
-1.87926
8.09159
6.42366
-14.0572
-2.36599
6.00422
-2.65574
-12.1515
-7.23927
-2.87034
4.76772
-1.29542
-7.48396
-6.36413
-2.77061
3.51124
-0.725797
-6.30191
-5.26813
-2.14008
1.39466
-0.648143
-5.69725
-3.93497
-1.66376
3.61563
-3.12738
-0.596677
2.91619
-3.54994
-12.5442
-6.99756
-2.8358
6.42517
-4.16497
-16.3709
-9.21054
-2.9943
8.52904
-5.50381
-21.2267
-13.3138
-3.96703
10.5985
-2.99434
-17.3553
-10.7978
-3.7232
16.6323
3.24781
-22.3572
-4.25156
13.5391
-5.88739
-21.2933
-12.0778
-4.66438
17.9338
-3.05508
-19.3208
-10.5959
-4.37113
11.9324
0.626809
-12.3842
-9.25118
-2.9863
8.81201
-0.829338
-10.9103
-6.22306
-1.67622
8.51705
0.655119
-10.2539
-0.0893233
2.24426
-7.29882
-3.37992
-0.463002
-0.393787
-3.67193
-8.71834
-4.78927
-1.51539
5.79316
-1.67824
-15.2804
-5.84793
-1.44264
12.2457
1.78598
-22.6775
-5.60345
-3.26888
16.9252
-6.97875
-23.6205
-14.0564
-3.63539
25.6283
-22.2266
-32.0401
-21.0452
-5.94989
38.2879
-30.609
-35.14
-20.9246
-8.06198
46.4523
12.3777
-35.6076
-9.14418
37.9747
-27.2246
-46.1966
-24.9514
-7.40583
24.872
-20.7796
-46.5406
-24.4795
-5.18864
25.4901
-1.24658
-25.9113
-15.7699
-4.94695
19.2977
6.85798
-23.1591
-10.4167
-1.99233
10.928
1.84086
-11.9732
-6.94383
-2.11409
5.24967
1.55799
-5.24054
-4.48832
-1.71288
2.08305
-2.5317
-2.65102
-2.07574
-1.98062
-3.61758
-6.85964
-5.26114
-2.10157
4.43031
-4.51359
-13.9154
-7.39954
-2.25564
9.86146
-4.26775
-18.4418
-11.5629
-3.20468
29.6866
-1.49516
-36.736
-12.9302
-4.76026
58.8044
-22.0931
-62.8775
-29.3116
-5.67036
107.93
-130.018
-101.429
-39.9787
-9.41999
113.561
-162.01
-116.747
-37.5422
-14.3022
138.725
-153.237
-32.5156
-20.1504
115.524
-168.746
-130.913
-41.712
-15.3807
91.8331
-123.618
-104.34
-44.9556
-15.0943
58.5692
-8.88718
-74.126
-40.621
-9.14765
34.5409
8.45065
-42.4022
-22.3785
-6.95499
16.4324
1.18051
-16.5696
-10.1691
-3.2321
10.463
0.690353
-8.11528
-5.87405
-2.22894
4.4769
2.56831
-3.82758
-4.15305
-2.18047
-4.50407
-3.62077
-7.38774
-4.11158
-1.85836
3.35466
-5.15339
-10.3464
-6.79853
-2.35597
8.46769
-6.35877
-21.7996
-10.9162
-3.2374
19.5674
-16.1257
-42.6535
-15.5393
-3.42509
61.9588
-139.484
-69.2731
-26.0724
-5.78231
142.462
-145.116
-115.507
-36.3829
-9.05758
314.741
437.966
-38.0708
-10.4796
383.965
436.166
437.412
412.724
386.65
432.694
436.692
433.158
308.066
373.932
432.564
436.295
423.821
307.071
430.037
-47.6528
-15.8282
175.448
-48.6295
-16.2523
61.2992
-55.6772
-106.181
-32.1485
-7.0225
23.2853
-0.673382
-32.0515
-17.8088
-5.19293
15.3092
4.7935
-16.2191
-11.8179
-3.32015
9.54313
1.71975
-6.6238
-6.17229
-2.40774
3.26276
2.16322
-4.32486
-3.32529
-1.27067
3.20703
-1.3677
-13.0717
-2.572
-0.498285
6.34128
-3.69865
-15.5303
-8.18506
-1.38228
14.8565
-7.06766
-24.7807
-13.0408
-3.88742
45.2143
-64.1798
-61.2446
-22.3378
-6.12417
144.773
-115.263
-103.915
-35.0149
-9.97246
378.136
439.944
439.921
-9.91981
415.117
432.794
436.015
407.088
298.493
416.35
429.04
433.481
440.952
326.11
414.875
427.405
433.739
424.086
278.314
410.683
426.934
431.854
414.994
326.128
391.646
427.22
432.674
400.546
288.709
346.628
432.997
434.684
426.085
-17.963
170.848
-75.5769
-129.532
-48.7237
-18.7752
40.6369
-29.7436
-57.8088
-30.6026
-8.29523
23.4075
4.69119
-23.6621
-16.3657
-2.42509
13.8787
5.19265
-13.8794
-8.84072
-1.13566
9.11
3.80355
-10.9879
-2.78386
-0.895573
2.89325
-2.92881
-12.109
-4.89463
-2.01672
10.0361
1.67258
-18.5314
-7.10949
-3.05375
29.6568
-19.5628
-5.66556
82.2309
-84.069
-79.5098
-32.293
-11.0052
307.335
-96.5497
-28.9661
-11.6201
415.94
433.311
438.202
392.741
275.59
419.958
430.064
437.25
376.203
262.039
418.275
426.984
435.981
434.635
295.532
416.666
424.497
431.892
435.443
212.626
415.237
424.625
433.46
457.745
330.155
409.889
424.957
432.552
349.672
309.267
386.832
427.314
428.832
430.855
304.305
301.279
428.281
433.856
-46.4275
-18.9925
80.7162
-67.613
-114.872
-47.1703
-11.8055
33.9275
68.7489
-44.3683
-4.9934
16.4041
8.56677
-19.9565
-10.0701
-2.28114
8.71681
2.21726
-8.6757
-4.79509
-2.04128
3.31722
-4.87902
-3.15231
-1.6312
-2.04836
-4.88249
-3.59777
-2.51679
3.87234
-3.839
-12.002
-6.12697
-1.91155
10.2765
-5.2787
-22.9097
-12.4526
-3.13339
32.2901
-22.6274
-34.9171
-21.5693
-6.2987
94.5646
-155.385
-116.053
-31.5151
-11.0815
381.854
438.471
439.902
439.787
-10.7345
419.323
432.205
436.87
390.752
263.544
419.969
428.829
435.885
463.238
221.509
418.97
425.656
426.126
297.988
246.571
414.003
421.983
414.408
345.061
243.95
414.924
421.551
420.369
295.174
239.588
413.426
423.752
431.554
445.132
174.967
399.629
423.98
428.877
411.898
247.699
346.398
431.767
434.838
385.204
306.592
120.137
-112.099
-122.495
-51.7053
-17.918
25.1141
-4.414
-35.8857
-14.3004
-4.39288
15.9041
1.82035
-13.0815
-9.75114
-3.21111
9.67219
3.58875
-6.93654
-6.14761
-2.77838
2.30982
3.09273
-1.88783
-3.32188
-2.58161
-8.48542
-2.29933
-4.4971
-4.33339
-2.50103
3.84141
-3.92761
-11.85
-5.98792
-1.92154
10.177
-5.36537
-23.0207
-12.5988
-3.39109
31.9891
-28.2415
-38.4919
-24.1092
-7.03142
118.01
-87.5872
-114.695
-38.0749
-9.29836
388.145
438.858
439.603
422.704
419.883
432.908
437.403
442.802
326.879
420.972
429.643
444.143
454.546
222.185
417.644
426.266
418.811
334.429
261.655
412.64
421.075
407.063
349.482
256.888
412.241
421.701
415.901
341.631
252.628
414.998
424.694
430.539
463.951
220.118
403.459
425.148
430.457
443.918
250.238
353.993
431.487
434.211
413.73
320.597
137.373
-77.8014
-124.075
-48.7732
-16.0482
23.0983
-3.58732
-29.2194
-14.6418
-4.01242
17.0565
1.92602
-15.3151
-9.50441
-3.06878
10.3177
3.45909
-7.01737
-6.13214
-2.66012
2.5401
3.16118
-2.20069
-3.86768
-2.05317
-2.12403
-4.64496
-3.14973
-2.52958
2.14321
-2.01895
-9.19578
-5.82258
-1.91813
9.83256
-1.48597
-17.2778
-11.0304
-3.52483
35.2932
-11.771
-33.9098
-19.8966
-7.17275
118.06
-164.598
-102.64
-40.2124
-11.7394
375.405
439.4
440.03
415.801
-11.1368
417.695
433.55
437.09
425.801
270.89
421.875
431.219
440.8
443.338
224.241
421.126
428.081
431.69
322.534
244.169
418.496
425.342
421.152
338.165
259.807
418.786
425.495
428.531
332.447
255.047
414.468
427.538
435.59
443.526
143.545
400.607
428.957
432.096
349.698
264.17
338.037
436.565
435.048
427.642
321.178
102.409
-101.552
-143.154
-50.6597
-11.4307
33.1381
-0.396496
-36.0929
-21.3277
-4.79261
16.4871
5.26382
-14.414
-10.8117
-2.31023
8.3787
2.77323
-6.69352
-5.58341
-2.54555
2.21073
2.89973
-2.14462
-3.03517
-2.36389
4.19251
-1.44756
-11.4061
-3.76726
-1.22559
11.2591
0.975744
-18.8967
-2.17529
-1.96907
27.6756
-12.1417
-3.87565
71.4603
-65.8309
-87.0959
-35.6905
-9.71443
290.269
-111.378
-44.7272
-14.1195
399.294
435.861
438.048
442.09
290.696
418.188
432.529
437.763
432.18
225.427
420.482
430.886
436.313
446.301
335.746
420.068
432.046
450.705
449.123
240.349
416.78
429.663
435.931
434.367
260.295
410.126
429.366
433.545
371.216
255.631
386.496
434.059
433.496
369.665
295.591
292.574
432.213
437.185
-43.4695
-14.1277
62.0929
-81.9844
-85.1299
-39.7284
-6.43218
25.4451
14.9008
-38.3505
-1.64309
14.0968
9.99757
-22.2795
-12.078
-1.34381
8.04156
5.72949
-10.5638
-6.53831
-1.15822
2.24503
-5.33061
-3.3287
-1.85071
0.812525
-4.32703
-13.9523
-4.27121
-1.46222
4.62872
-4.77481
-12.8882
-7.87683
-2.3828
11.4802
-5.5358
-23.5555
-13.0853
-4.10069
33.4197
-35.7653
-46.5901
-19.7986
-4.87267
135.383
-91.4902
-115.272
-44.3987
-13.685
334.776
442.272
442.393
-14.0482
395.048
436.833
437.753
433.619
262.652
407.823
432.852
436.787
449.101
248.753
409.716
432.682
441.695
359.665
165.726
404.822
431.927
435.647
445.505
260.448
386.796
435.185
433.933
405.72
287.695
339.738
437.649
437.504
345.509
-11.8756
94.7964
-161.603
-97.5388
-38.3167
-4.64819
14.4635
-7.40359
-27.7912
-14.8614
-4.65725
8.66789
-3.89269
-20.4829
-12.8922
-2.7421
7.1087
-3.14571
-12.4109
-7.00782
-1.95317
4.677
-0.0184624
-12.9409
-3.19208
-0.61134
-7.12431
-4.32208
-7.448
-3.94329
-2.17639
0.131924
-4.30351
-8.34903
-6.26307
-2.52807
5.54556
-3.73758
-15.0179
-8.99272
-2.82838
17.3333
-7.25804
-22.9555
-14.7826
-4.9026
47.1096
-43.1565
-53.5696
-28.3763
-4.77524
114.121
-134.898
-90.2889
-46.5933
-13.4503
283.536
439.254
-105.483
-41.0341
-13.0115
354.823
438.602
440.712
397.313
363.142
439.041
441.268
407.036
323.562
353.798
438.58
439.255
426.152
285.25
436.628
-30.4813
-12.3426
94.2315
-33.3723
-7.24441
35.4909
-27.2654
-45.4094
-22.8345
-4.9474
8.57127
-4.2157
-16.6752
-9.61034
-2.9459
3.70479
-3.70051
-10.2278
-5.98485
-2.03031
1.97786
-2.1147
-7.37137
-5.38798
-2.15557
-1.48367
-2.00764
-6.02576
-3.93581
-1.53444
-3.67675
-3.61763
-6.65382
-5.03893
-2.16465
1.41284
-2.92517
-10.2201
-5.76256
-1.97675
7.89736
-3.01836
-16.0483
-9.1057
-2.20042
22.8332
1.14511
-33.4742
-16.1918
-3.03246
36.7046
-19.7415
-42.4767
-20.4429
-4.48995
52.8093
-104.65
-73.4292
-27.0176
-6.69792
70.3064
-160.248
-72.2541
-27.3769
-8.35779
78.2733
-198.746
-27.5828
-9.46813
70.9751
-163.46
-76.9815
-26.0261
-6.34129
48.0649
-80.7597
-66.7921
-24.0703
-5.56277
31.0745
-17.0575
-50.2491
-25.7492
-3.83042
17.5933
-1.45898
-36.0592
-14.9658
-1.46326
6.85355
-2.0568
-14.3059
-9.32466
-1.96663
2.04427
-2.62056
-8.59087
-6.00588
-2.39586
-1.16317
-1.93818
-5.85289
-4.86439
-2.31195
-1.26806
-3.59427
-8.9447
-4.88207
-1.72111
5.02696
-1.7955
-15.0648
-6.36659
-1.54805
8.23261
-1.20587
-19.8623
-4.66052
-2.53461
7.9254
-3.83408
-16.6842
-9.15924
-3.19152
10.0714
-6.44294
-22.1616
-12.4403
-3.49085
23.304
-10.3908
-29.4351
-18.7318
-3.4346
29.2078
-19.42
-23.4916
-3.74546
11.8412
-13.8332
-30.8787
-11.045
-3.53038
7.91965
-5.02816
-18.6041
-10.4613
-3.45806
9.54813
-4.13425
-18.6902
-12.5137
-2.81057
7.42048
0.229536
-21.5399
-10.5204
-1.31381
3.9583
-0.371449
-14.7925
-5.19174
-0.959248
-0.57142
-2.44619
-7.88672
-5.0707
-1.75704
-2.43323
-4.96108
-3.58542
-2.27854
1.30756
1.29423
-0.612552
0.965638
-3.27159
-9.49716
-5.38763
-1.61715
3.38088
-2.82924
-9.93261
-6.95936
-2.72005
3.94916
-4.20066
-12.2315
-6.34034
-1.90598
7.58769
-2.77984
-14.3001
-9.18154
-1.47549
11.5148
-4.57988
-12.0584
-1.84804
4.60956
-5.26708
-14.5929
-5.84968
-2.09563
5.033
-3.86713
-10.4393
-5.86698
-2.01364
1.52353
-4.18314
-10.5669
-6.91628
-2.49399
0.355011
-4.19122
-10.9138
-5.78134
-1.74978
1.78118
3.67803
-17.8543
-8.49718
-0.541726
-9.67694
-3.05573
-1.1706
-6.09123
-3.33338
-6.04678
-3.35221
-1.29175
-2.51905
-2.9699
-5.85288
-4.54746
-2.14143
-0.337768
-2.32355
-7.42588
-4.95204
-2.16624
1.69323
-2.47226
-9.27179
-5.54204
-1.89231
5.3755
-5.08566
-5.72969
-1.08265
1.34966
-4.68322
-10.3309
-5.6828
-2.00471
-1.64158
-4.23801
-7.89109
-5.32123
-2.06809
-3.14325
-4.13293
-7.43172
-5.31223
-2.46005
-5.17651
-4.01038
-7.40564
-4.40529
-1.81788
-6.76278
-2.34675
-6.72798
-3.97855
-1.9005
-3.55505
-5.87258
-1.31946
-0.134792
-6.46347
-3.83502
-9.11196
-4.16169
-1.67695
-4.06324
-2.17622
-6.46739
-7.07376
-5.47198
-4.40371
-2.17373
-1.76181
-0.063891
-3.32489
3.44443
-6.85947
-7.15777
-14.5859
-7.44803
-5.56841
-14.9371
-5.84469
-4.34622
-1.99396
-5.12036
-0.805231
-1.6443
-0.0609129
-0.732505
0.0952063
-2.98607
13.6721
0.34304
-0.812919
-1.08056
-8.52625
-8.99318
-5.67595
-12.6492
-0.705158
-4.13421
-1.87391
-0.688816
0.18987
-1.68895
-0.144119
-0.541386
-1.4725
-7.7945
-8.4444
-5.61563
-4.15959
-2.15142
-1.93479
-0.150985
-3.06114
-3.53321
-6.71137
-7.0063
-5.57329
-4.60198
-2.38115
-2.06577
0.0247973
-8.2639
-3.16096
-4.05478
-2.85753
-3.63978
-6.6151
-3.56577
-5.50477
-6.92562
-5.4332
-6.41991
-6.06838
-4.53504
-2.51285
-5.20744
-3.25215
-2.20608
-0.0326115
-2.51573
-0.308434
-3.38621
-2.6885
-1.49076
-2.10973
-3.41665
-5.62221
-3.07526
-6.00039
-6.502
-6.20428
-7.26419
-6.87929
-5.34479
-3.40003
-6.00474
-3.75776
-2.56909
-0.390638
-2.82052
-0.388356
-6.30697
-2.71644
-1.25057
-1.58588
-0.0625023
-0.795969
-3.03782
-6.31337
-2.90567
-5.30075
-2.8716
-6.43901
-5.55511
-7.39106
-6.02618
-7.80897
-7.38628
-9.23155
-8.43447
-3.36163
-3.93325
-2.00213
-5.5493
-3.97354
-6.07266
-4.07586
-1.41782
-0.266624
-2.50288
-0.971481
-2.21958
-0.776481
-2.51455
0.748602
3.89739
1.28617
0.354506
4.06521
5.17017
-7.48839
-3.53944
-14.9473
-3.21705
-7.52096
-6.44732
-18.1079
-6.29927
-15.1076
-7.81357
-9.30915
-7.86188
-18.646
-10.0536
-2.05261
-2.17569
-1.17459
-4.92161
-3.57421
-2.96034
-0.658893
-0.271647
-0.899258
-0.23257
-1.99562
-0.692715
-0.161619
-0.322371
9.04309
-2.77191
0.799031
6.031
14.8053
4.0608
3.0705
-1.34089
-8.2293
5.08765
-0.267019
-9.13488
-9.1752
-6.23595
-10.7253
-10.1662
-8.92011
-0.822645
-3.80861
-1.86641
-13.2427
-2.37604
-6.23522
-3.1875
-0.0733251
-1.5386
-0.503537
-1.18453
-0.511549
-2.36993
-0.983497
-0.600713
-0.661945
2.98457
1.67836
2.29536
1.19223
-7.8686
-1.19169
-5.08046
-1.98535
-7.35329
-1.98507
-5.51637
-6.7704
-5.62876
-4.72339
-10.2214
-9.41678
-7.68547
-7.06311
-2.36641
-4.0529
-2.71331
-5.75761
-3.48049
-5.43354
-3.67989
-0.417124
-2.49401
-0.0698728
-2.24421
-0.792532
-2.21067
-0.877032
2.54052
1.24681
1.71693
1.07502
-4.60049
-1.27402
-3.98063
-0.504269
-4.16631
-4.51485
-6.34275
-6.65567
-5.48633
-5.65792
-2.69868
-5.26209
-3.70712
-4.94887
-3.14652
-0.0381047
-2.15895
-0.86823
-2.40483
-0.442249
1.35964
0.841708
-0.332505
0.0699659
-0.606853
-3.96456
-0.587799
-3.83369
-5.15888
-5.26101
-4.90545
-4.28281
-4.60851
-2.98431
-3.22031
-2.43608
-2.35206
-0.338693
-1.86387
-0.362328
-1.04506
-0.0281473
-0.635966
-4.49516
-4.99364
-4.31039
-3.68625
-2.32638
-1.99327
-0.21776
-0.413656
18.738
-1.05957
-0.2674
-0.251516
0.00156142
-6.42362
-2.92256
0.877138
3.98564
0.106352
-0.115102
-3.4022
-7.22853
-7.4184
-4.09097
-9.58919
-7.8618
-6.26697
-10.3339
-11.2587
-9.34452
-4.36304
-2.31294
0.830665
-1.09584
-4.65167
-2.34046
-1.86108
-0.281135
-0.64378
-0.153724
-1.28053
-0.438349
-2.58927
-2.01852
-2.00149
-0.0528071
-0.347039
0.655437
-0.575473
-6.65096
-3.70474
-5.82334
-3.86962
-8.14066
-3.7005
-7.26557
-6.36839
-7.46188
-7.32871
-10.3387
-9.34779
-9.69594
-9.07378
-2.64607
-5.53633
-3.90014
-6.13168
-3.75242
-6.75237
-4.5945
-0.370241
-2.12235
-0.803409
-2.10208
-0.84205
-2.59191
-0.949696
-8.19308
-6.20968
-18.623
-2.9855
-10.5298
0.417746
-24.7187
-9.15084
-19.1852
-10.5856
-13.4282
-11.3449
-25.0201
-16.6341
-0.0644712
-9.96331
2.98157
0.389576
-13.7329
-11.6975
-11.0086
-10.1459
-18.197
-15.5125
-13.596
2.5901
1.76231
1.07656
7.21113
4.36908
5.75927
4.30939
1.08148
5.36195
4.30148
6.64026
7.31205
-4.53404
-0.776908
-6.65007
2.33618
-13.0054
-5.13444
-9.16645
-8.0976
-13.282
-7.46063
-2.2077
-4.99434
-2.79844
-3.17886
-2.12141
-0.292623
-1.48781
-0.535325
-1.16589
-0.312639
6.56733
10.1489
4.6557
-14.6744
2.30073
-7.90195
-14.8921
-8.63863
-8.94385
-5.24252
-6.37861
-0.21389
-3.36613
-0.359169
-0.217072
-0.17497
-0.282327
0.0656261
-3.43707
-2.70768
-3.81238
-6.77198
-7.57202
-5.77265
-4.25301
-2.02023
-1.456
-0.149577
1.25593
6.02908
-1.86864
-1.9724
1.78023
1.06321
27.4036
-4.18243
-7.34834
-2.41545
-12.0688
-27.994
-8.70133
-7.14974
-12.7725
-7.90737
2.00091
-0.750938
-3.75563
-1.93509
-3.52344
-1.91212
-0.469818
-0.218444
-1.06656
-0.337257
-1.19477
-0.568255
-2.48604
-12.4006
-1.40254
-14.8969
0.426528
-23.0193
-13.1055
-9.89358
-15.3518
-7.92929
-22.1033
-14.0423
-14.2286
0.293899
-26.4291
-8.50642
-23.0036
-4.73123
-45.6478
-15.0504
-26.4499
-18.6841
-24.8627
-21.1441
-39.2827
-31.6542
0.0349075
-16.8044
9.3713
-3.52602
-31.171
-19.909
-18.4345
-16.3375
-33.151
-32.0572
-25.0592
-9.37536
3.46799
-14.2791
5.42438
-17.0797
7.85563
-15.0126
-9.67513
-14.5553
-8.25549
-19.6915
-15.542
-15.7534
-10.6791
12.2909
0.732578
3.92435
9.49976
9.55463
6.44056
5.79926
2.01539
-7.24641
5.19212
-10.7402
1.4366
-4.63215
-8.9741
-9.02176
-5.97797
-13.5977
-9.93569
-8.18264
-7.63847
-0.428557
-2.83551
-0.520717
-5.85083
-1.79785
-4.42346
-2.18119
-0.0816482
-0.407576
-0.148939
-1.16976
-0.503576
-1.03807
-0.446867
3.61404
4.69745
3.88481
2.49439
-6.58032
1.94389
-3.9296
1.94605
-2.10498
-5.2509
-5.66087
-5.72745
-2.82182
-3.43103
-0.522896
-4.7066
-1.89312
-2.80917
-2.13203
-0.0456255
-1.27563
-0.200379
-1.87639
-0.271931
-5.79238
-3.41513
-3.69017
-5.28735
-5.90181
-5.05975
-4.16485
-2.6222
-2.11778
-0.346142
-2.60547
-2.39623
-4.05302
-3.00871
-1.17731
-1.80362
-3.92907
-5.68795
-3.61517
-5.73715
-3.77294
-6.12681
-7.11843
-6.39695
-6.291
-5.4979
-7.68875
-7.12306
-4.45951
-3.00943
-4.62844
-2.74432
-5.22024
-3.54962
-1.7172
-0.638793
-2.00078
-0.274015
-1.9454
-0.67836
-14.7991
-2.30386
-26.8019
-3.22615
-12.6904
0.82808
-25.4099
-10.5892
-23.681
-17.9154
-15.8682
-13.7159
-25.8247
-18.2469
-23.9157
-5.50377
-20.6775
3.8862
-32.9225
-5.73066
-40.8941
-14.0444
-21.7534
-19.2072
-31.7426
-18.7909
-44.2205
-31.1263
-41.3213
-6.27608
-52.3747
-123.228
-125.686
-121.476
-104.549
-29.0741
-44.5018
-34.4271
-66.7896
-40.805
-85.3185
-36.7525
-12.4124
-42.9662
-88.3797
-125.815
-125.189
-35.6128
-42.0191
-31.7849
-36.6801
-93.2648
-44.551
-19.1246
5.0829
-20.4294
0.655271
-49.5817
47.3613
-24.0078
-23.0725
-20.1787
-54.4242
-41.3256
-39.8216
-21.7027
6.34612
-14.3116
17.656
-41.4731
6.31856
-14.1795
-17.316
-16.6721
-13.002
-38.7427
-31.0006
-17.5875
-16.4904
4.89798
-1.73357
2.96063
7.29873
5.50412
4.70922
4.25113
-2.03818
1.86216
-1.61745
2.18706
-2.19239
2.3275
-0.514393
-5.72188
-3.19144
-3.64871
-6.31223
-6.71654
-4.21887
-5.00536
-2.8578
-2.99635
-2.2823
-5.72342
-4.01563
-4.54791
-3.51764
-0.706514
-1.88902
-0.391019
-2.4244
-1.05297
-2.22299
-1.04987
2.51415
3.32577
3.35569
-1.74635
2.38921
-1.37213
-3.19236
-3.29787
-4.18242
-2.33348
-3.95073
-2.75492
-0.185303
-2.21284
-0.411521
-3.98161
-6.43038
-6.70226
-4.49134
-3.95095
-2.52391
-2.39146
0.400298
-4.54008
-3.09667
-8.00544
-3.27581
-1.23743
-2.365
-3.54141
-5.4816
-3.73741
-6.29639
-3.76971
-5.77731
-6.10562
-5.33592
-6.52905
-4.53965
-7.06756
-6.60334
-4.46113
-2.74587
-4.07384
-2.5499
-4.84073
-3.28474
-2.08364
-0.327855
-2.38259
0.0989862
-1.96428
-0.707156
-37.8236
-10.7499
-54.8433
-40.893
-62.0621
-116.414
-124.268
-23.6463
-54.4543
-44.578
-53.7235
-33.9605
-102.334
-46.312
-67.7704
-143.961
-130.735
-0.535032
-129.883
-150.821
-42.7799
-89.623
-54.942
-47.1934
-117.412
-49.9325
-145.359
-130.216
-147.905
-135.471
436.128
438.545
-66.4418
-124.221
-49.8841
-120.954
-49.8895
437.73
-21.281
-35.8692
-20.4911
-36.4723
-16.1633
-16.2928
-2.64574
-10.5943
-3.23678
-11.388
-2.89608
-12.7496
-0.979883
-132.516
137.438
-219.751
337.847
431.573
347.412
427.388
-148.45
-210.826
-110.08
437.478
438.355
434.647
437.804
-46.505
-89.1115
-35.6596
437.721
390.734
437.521
368.491
-23.4263
-30.5801
-23.927
420.118
-16.7542
446.413
-4.32627
-20.2079
-5.78691
-14.0731
-1.32975
-1.52825
-156.53
120.376
-184.784
347.698
426.86
340.133
425.683
-194.68
-148.457
434.086
436.995
434.216
436.827
-35.4497
-110.41
-47.2866
436.653
406.038
436.519
361.608
-23.2683
-38.0509
-25.1742
430.915
408.313
-20.2111
-6.51945
-17.5132
-6.83054
-0.629281
-17.3398
-3.13246
-163.354
-110.097
-143.568
434.632
436.978
431.533
-53.9805
-128.091
-70.2651
436.562
387.42
-56.146
-24.6457
-42.321
-26.2669
419.078
-20.9842
-48.0749
-22.0648
-5.53091
-13.1861
-3.83003
-18.3135
-2.81076
-17.2025
-2.55888
-133.981
-97.0237
-132.356
-132.798
-78.3864
-166.552
-73.253
-104.063
-67.8611
-118.596
-59.6031
-157.736
-61.1203
34.6365
48.9223
38.2471
102.243
-2.89295
69.6048
21.3562
-73.7352
21.6487
-53.0758
-29.6204
-91.2655
-49.6049
-48.3658
-43.6654
-86.6249
-55.5314
-23.0979
-37.595
-19.1005
-55.3206
-30.1108
-42.8145
-21.7152
-34.9915
3.40612
-15.9802
-14.4266
-49.5089
-2.95064
-28.9042
-33.5682
-23.1934
-23.6517
-56.1195
-44.9958
-33.7827
-30.1372
3.6453
6.6336
5.01056
3.70723
3.73235
-0.253178
2.33124
-1.17881
2.32231
-2.05243
-4.51536
-4.89745
-5.55399
-3.56923
-4.26907
-3.29217
-4.79642
-3.682
-3.54253
-1.93543
-1.00851
-2.16806
-0.859975
-1.42274
-0.451682
2.56865
3.21349
2.47472
-2.57047
-3.33351
-3.50319
-2.63769
-1.59932
-1.43447
-0.106757
-8.6559
-3.8495
-1.05425
0.903576
-4.27993
-6.9032
-3.84261
-11.1873
-7.09586
-4.02936
-11.4887
-5.79596
-3.6068
-1.70358
-2.40375
-1.31852
-2.86251
0.178829
-0.963762
-0.199723
-2.53665
-0.147308
-1.20164
0.224914
-0.284031
2.03611
0.0821534
-6.98407
-4.063
-7.01392
-4.55219
-10.0225
-4.54874
-9.21382
-5.4595
-8.58698
-7.97179
-10.5434
-8.12128
-10.6605
-9.15198
-2.33549
-5.64999
-3.76641
-3.65468
-2.2377
-5.42052
-3.58046
-0.263382
-2.16004
-0.73752
-1.21189
-0.39489
-2.13078
-0.80105
-122.158
-178.944
-134.082
-127.726
-153.756
440.222
-43.3539
-103.415
-47.3937
-96.351
-53.4757
-38.4404
-131.061
-137.1
440.313
440.642
434.356
438.531
-44.7018
-120.957
-44.3887
440.5
-36.1949
436.595
374.847
-15.3219
-36.8632
-15.1872
-30.5104
-12.7164
425.711
313.621
-2.77718
-10.748
-1.19098
-9.13722
-0.783455
309.381
436.023
438.632
435.061
437.537
432.084
435.671
-45.8998
437.741
462.956
435.154
405.925
434.698
415.374
-15.1969
428.024
406.334
309.315
418.635
340.073
-0.96639
-11.1057
-0.263759
311.104
11.1498
270.034
5.79865
437.985
433.182
436.087
429.466
434.434
428.503
432.958
405.366
437.375
348.663
434.241
413.03
433.48
442.619
454.113
354.855
443.273
306.419
445.244
241.362
-0.412552
331.976
0.155817
241.754
3.05337
299.592
3.47141
435.33
432.882
436.409
427.582
432.232
426.84
431.955
408.916
435.85
393.77
433.413
434.239
431.625
476.154
322.587
414.048
321.949
424.348
293.702
370.081
288.113
1.06765
-2.50838
292.32
291.692
2.26091
436.821
432.237
436.236
428.009
432.626
430.245
433.621
376.909
435.605
-54.1796
432.132
416.53
431.597
379.136
-46.0668
-20.2788
350.785
215.039
412.142
271.069
-3.15325
-17.3024
-3.17795
230.19
2.71254
306.365
-7.74773
436.256
-79.1255
427.787
434.072
433.755
435.279
-55.8652
-59.7764
433.558
553.208
434.423
412.273
-20.5207
-53.8411
-21.7115
406.452
317.625
396.136
-20.2927
-4.56226
-17.2292
-6.83589
298.008
-10.8145
-17.9525
-8.9722
-157.204
-158.3
431.199
435.582
-76.315
-139.998
-113.976
-72.0972
434.984
412.133
-119.622
-71.0949
-26.5461
-40.3557
-24.9523
-21.3957
-45.6953
-33.2769
3.86847
7.63205
6.64025
-3.00481
2.81661
-8.12139
-4.19391
-9.19276
-5.76788
-1.69498
-2.99531
-0.937615
-0.151157
-0.688858
-0.266082
0.668345
2.00804
1.69689
2.83225
-2.96766
-13.2697
-0.0411641
-11.7939
-13.0349
-4.75101
-12.3811
-8.13651
-0.286095
-1.02744
-4.29482
-1.71248
-0.612419
-0.100693
-1.17512
-0.333324
3.2283
4.55476
1.842
4.42795
3.98968
7.06081
6.90694
-12.8976
-2.88893
-14.1411
0.175974
-12.4392
-0.723539
-19.5654
-5.94686
-14.5293
-10.2343
-13.2362
-9.40065
-20.5364
-6.50718
-1.5474
-7.33974
-2.17339
-6.41505
-1.63826
-1.75671
-2.46172
-14.846
-5.63225
-18.6577
-2.58969
-20.9102
-7.27522
-12.2011
-20.5149
-17.4796
-21.3572
-7.3915
-28.4651
-22.1714
-21.3644
-36.3339
-7.42722
-41.0454
-29.1561
-74.5618
-20.4011
-35.9109
-28.0642
-37.7254
-30.6677
-67.5723
-38.6088
-82.5681
-173.535
-141.526
-67.6044
-93.127
-163.284
-139.877
-37.823
-88.7577
-51.7496
-76.5
-47.0947
-98.8376
-40.1441
-148.675
440.091
440.961
-125.762
435.507
439.694
-45.5197
440.54
-36.7382
-103.408
-35.5313
438.963
461.587
-15.7306
-30.245
-12.7342
-29.0208
-15.4161
408.053
293.878
-2.04591
-10.1919
-0.821257
-11.6186
-1.9829
305.961
-2.19855
437.666
418.049
438.495
371.332
438.063
384.935
-12.2452
434.804
309.538
350.683
268.727
376.49
150.194
-0.351673
299.451
301.766
-10.0452
281.651
-0.381105
424.501
434.932
357.851
438.13
417.822
435.243
456.44
304.689
417.73
295.895
424.918
267.388
439.76
232.644
1.83943
330.474
4.7753
285.248
-1.13743
220.849
-68.0399
411.748
433.424
440.332
434.055
558.945
432.996
624.734
316.123
444.394
220.541
425.087
238.581
435.692
281.568
0.690435
295.82
4.48977
102.475
277.348
-31.7262
430.09
431.524
414.434
433.975
471.559
433.392
428.674
266.637
362.083
299.557
430.854
5.58454
438.467
192.339
263.541
-1.76064
196.844
-67.6907
375.319
432.382
443.29
432.923
447.108
432.57
421.777
270.88
422.181
290.326
452.896
233.98
380.807
239.186
2.09625
329.714
-2.63345
172.87
271.423
-1.4271
412.573
434.339
410.131
432.105
208.201
430.267
411.345
284.405
418.871
401.793
168.012
432.226
278.463
-15.7929
-7.70602
273.309
2.20066
248.822
2.41
435.559
-53.8772
-139.773
431.371
431.749
429.32
434.79
422.208
-122.781
-66.1509
430.926
411.172
433.707
-20.6579
-49.4998
-26.5747
433.393
279.203
-49.2727
-22.9872
-9.86958
-20.5155
-3.47303
307.792
-3.88185
-19.9714
-5.99793
-151.23
-129.287
-164.945
428.224
-113.853
-176.217
-77.1866
-120.711
-77.71
-58.0041
-132.77
-69.5001
-30.5815
-44.6954
-27.1348
-49.8621
-26.0587
-41.796
-28.6706
-56.3352
-0.917625
-26.413
-72.0653
-120.644
10.4151
-51.7663
-46.887
-34.0848
-31.7715
-97.0678
-52.4247
-48.5214
-43.9863
-15.9002
3.89255
-12.5626
18.07
-45.5686
10.4103
-21.979
-15.1518
-13.7262
-43.1073
-36.6905
-22.8032
-11.5098
6.57105
-9.53449
5.6008
-26.3106
7.90319
-12.0314
-12.0884
-10.5378
-7.57381
-23.5623
-18.5943
-14.3721
-10.3623
9.20476
9.80707
9.85355
2.33388
5.48354
-10.8628
6.5468
-8.81929
3.92323
-5.20143
-7.04918
-10.9126
-8.85181
-6.94129
-5.31094
-0.526682
-6.19404
-0.992248
-2.92053
-1.18673
-0.318012
-0.624549
-0.341153
-1.06074
-0.31534
5.11906
3.78522
-4.82629
-5.60011
-4.66961
-3.30087
-1.22379
-1.17291
-0.162471
1.04171
0.725731
-1.90395
-0.462591
-0.624101
-3.08657
-7.27793
-2.01756
-4.68661
-2.45468
-5.48252
-8.84749
-7.3629
-5.17716
-4.17721
-7.65156
-6.88169
-3.6304
-1.94732
-3.52555
-2.60458
-4.48465
-3.02423
-1.13741
-0.525197
-2.36233
0.316123
-1.75081
-0.645023
-11.2934
-0.179728
-15.1173
-1.83228
-6.20541
-2.06883
-8.56845
-9.8985
-15.9329
-9.86271
-9.49737
-9.20245
-12.3373
-11.3241
-17.5419
-1.30557
-11.9271
-4.83652
-18.7396
-11.2947
-16.8827
-15.476
-23.587
-19.7562
-37.2556
-78.0632
-9.83333
-33.6429
-74.3629
-94.7784
-71.5651
-37.4306
-33.989
-24.9912
-74.9829
-39.6828
-33.8548
235.774
-160.436
111.856
-110.163
312.811
435.369
-89.8513
-177.317
-130.474
-159.355
-125.822
438.779
441.359
-41.3335
-104.461
-35.4628
-97.0869
-44.3893
440.745
-21.5573
-25.4773
-16.418
-34.3869
-21.4833
-16.7381
-3.65319
-12.3684
-4.03546
-10.0776
-3.25189
-12.3137
-3.02293
-122.885
437.389
438.782
438.834
441.279
435.185
438.263
-34.1616
438.447
402.875
440.193
424.085
437.143
422.426
-15.3176
406.416
292.45
432.641
-13.7933
429.106
215.486
-2.94937
294.1
12.6634
-11.6193
-8.09087
269.368
-0.195033
560.511
436.771
426.546
437.181
357.475
436.619
359.333
267.033
412.537
255.753
417.858
277.313
446.5
125.381
2.17513
314.511
307.102
2.22933
262.214
-96.3689
383.977
438.333
418.075
436.917
439.197
431.178
501.03
197.623
440.827
254.179
438.518
186.071
407.775
166.744
-0.305882
374.321
-24.6135
219.519
337.779
585.066
432.102
599.397
428.308
437.052
421.501
377.018
199.241
436.925
214.36
342.991
167.565
339.904
259.853
-27.5829
235.28
-38.2901
231.29
254.094
447.488
419.765
415.539
418.912
415.372
420.297
415.699
418.255
430.534
424.168
430.858
422.472
419.973
422.334
424.508
480.136
432.525
502.017
420.961
375.758
420.376
355.576
177.723
454.951
73.1545
340.983
259.352
277.074
257.166
176.384
252.154
410.544
255.265
632.951
459.088
434.331
207.437
425.285
392.342
430.076
440.26
209.884
395.486
226.638
268.848
201.109
444.262
246.123
396.912
1.43898
224.373
598.501
266.116
382.379
429.528
412.917
430.731
560.678
429.443
399.463
200.388
428.649
315.925
440.624
240.511
423.691
194.099
-20.9904
273.918
-4.66016
316.274
229.092
-1.39363
431.07
431.666
434.524
425.829
429.619
431.662
433.374
440.039
433.625
428.978
444.521
432.477
359.069
293.059
-22.5087
424.7
223.132
341.673
287.081
-6.43052
-19.7254
-8.60644
251.293
-17.042
288.023
-5.20693
416.948
166.444
-40.3396
329.802
420.446
182.019
-97.2977
434.7
-150.462
-180.5
433.583
434.711
-124.305
-178.482
-51.7751
-130.877
-53.9195
433.41
327.935
-133.353
-61.4486
-24.4828
-46.7298
-28.8475
388.769
294.086
-49.6733
-26.0193
-8.51629
-17.9349
-7.29516
-8.55654
-18.6062
-7.62436
-134.141
32.4838
-120.653
-169.91
-2.38374
-62.3745
-54.4691
-43.5204
-128.713
-64.6768
-64.6884
-45.7129
9.61095
-24.5318
6.2095
-39.0702
2.49095
-14.6956
-23.6415
-20.8898
-43.0427
-31.2605
-21.9633
-20.7023
-16.3626
4.93991
-9.81928
4.15733
-7.75613
3.75899
-4.27902
-15.96
-11.8324
-10.1473
-14.4917
-14.7944
-10.3074
-10.8482
7.51942
2.38944
5.21277
8.60559
6.8846
4.32209
4.32164
-4.97019
2.87527
-4.25431
2.80826
-2.76724
2.87816
-1.53333
-8.11592
-5.76422
-4.92263
-6.93797
-7.37977
-3.14178
-4.17797
-2.99273
-3.54248
-2.12487
-5.58348
-4.00736
-3.75631
-2.88336
-0.873715
-1.80113
-0.366723
-2.2815
-0.778232
-2.38129
-0.394195
4.5604
1.52692
3.59235
-4.12877
3.03283
-1.33203
-4.26802
-2.14141
-3.4447
-1.78355
-3.31808
-2.88076
-0.171017
-2.58726
-0.220436
-3.32087
-4.48785
-4.57017
-4.04172
-3.18075
-2.70888
0.225427
-2.00417
-0.163131
-0.693561
-8.44037
-2.37947
-0.0432374
-0.678209
-4.42984
-2.02322
-4.72967
-2.26387
-3.46902
-1.91299
-4.39067
-4.17224
-7.22412
-6.49935
-4.63051
-5.0382
-6.97548
-6.47473
-2.76908
-4.91952
-3.65165
-4.32617
-3.25114
-5.12281
-3.94813
0.264007
-2.31523
-0.917822
-2.49571
-0.310206
-2.59252
-1.04494
-152.268
438.83
441.198
-84.6517
-143.273
440.325
440.623
-42.2123
440.526
-116.258
-49.4784
440.328
432.51
-18.8627
-15.1181
-37.6947
-15.9838
438.312
-12.2417