/*--------------------------------*- C++ -*----------------------------------*\
| =========                 |                                                 |
| \\      /  F ield         | OpenFOAM: The Open Source CFD Toolbox           |
|  \\    /   O peration     | Version:  4.0                                   |
|   \\  /    A nd           | Web:      www.OpenFOAM.org                      |
|    \\/     M anipulation  |                                                 |
\*---------------------------------------------------------------------------*/
FoamFile
{
    version     2.0;
    format      ascii;
    class       volScalarField;
    location    "68";
    object      p;
}
// * * * * * * * * * * * * * * * * * * * * * * * * * * * * * * * * * * * * * //

dimensions      [0 2 -2 0 0 0 0];

internalField   nonuniform List<scalar> 
146404
(
-8.07386
-3.77771
-11.8392
-7.54626
-13.2565
-8.18058
-4.14525
-3.97425
-7.40244
-22.1314
-2.44892
-8.48424
-5.08847
-11.7773
-7.11466
-3.55417
-8.41938
-6.97464
-4.34302
-10.773
-8.71838
-11.8145
-8.4834
-4.13529
-6.71402
-8.63968
-12.3014
-10.2525
-4.5267
-2.74463
-9.07085
-19.4704
-13.3262
-4.09918
-1.9441
-8.0457
-16.6052
-11.1439
-4.24834
3.27018
-1.47865
-21.1578
-4.14942
2.10651
-6.9022
-16.5503
-11.3838
-4.52545
0.18181
-5.33163
-11.5979
-10.314
-5.02173
-1.07289
-4.03935
-9.73588
-8.80188
-4.18145
-3.12082
-3.39743
-8.66955
-6.94696
-3.71963
-4.11718
-8.25286
-3.05287
-3.40172
-9.25983
-17.8154
-11.7892
-5.49574
1.39966
-9.9417
-24.608
-18.5548
-6.32172
3.73476
-12.5544
-34.1468
-24.9602
-7.44219
6.21001
-8.7954
-27.0205
-19.0283
-8.90244
13.4747
-7.68812
-35.0298
-9.28935
10.77
-9.10868
-28.1771
-26.1917
-10.1835
13.0439
-7.09853
-28.0719
-25.245
-10.591
7.68228
-2.71585
-17.1357
-16.7866
-7.34784
5.50296
-4.49904
-14.3387
-9.40688
-4.86877
5.85281
-4.43888
-11.6004
-2.17753
2.0574
-7.82051
-4.45436
-2.4273
-8.99004
-11.6242
-15.5015
-9.81613
-3.70437
-2.18628
-10.5877
-23.1435
-12.1157
-4.83946
6.14
-3.18363
-29.3289
-11.5751
-8.22004
11.9745
-12.742
-34.2826
-28.4586
-9.61228
21.2912
-32.8678
-54.6249
-49.8325
-10.2012
35.7791
-33.7744
-70.1339
-42.947
-10.6034
47.3426
0.0541274
-80.7
-11.4665
37.5527
-24.6118
-72.4276
-55.1986
-14.9004
27.5954
-21.999
-57.923
-56.4828
-16.55
23.5613
-5.49829
-34.7158
-39.4298
-14.1691
18.2348
3.47821
-27.5825
-14.3357
-9.49813
10.2592
1.79887
-13.6803
-10.6361
-5.72627
4.50929
1.37378
-6.13553
-6.49962
-3.77389
2.14452
-2.86467
-4.2701
-3.22127
-10.7533
-11.7563
-14.1139
-10.2301
-4.36402
-4.58751
-12.7837
-25.0362
-14.1199
-4.52873
1.74224
-14.3196
-32.6258
-22.5836
-8.12742
23.7489
-11.7951
-57.8179
-26.9734
-11.7313
55.0722
-24.5801
-94.5011
-97.6518
-13.9085
98.2697
-87.4371
-158.23
-122.676
-18.1534
114.087
-104.872
-184.071
-126.56
-21.9231
143.895
-91.192
-136.773
-24.8243
119.164
-104.599
-169.144
-152.386
-38.4591
95.3242
-78.9387
-129.336
-164.498
-43.9186
60.1836
-6.9618
-91.3692
-167.958
-31.3599
36.1375
11.0112
-47.8589
-51.6955
-18.2369
18.0273
2.47118
-19.9664
-21.7873
-9.33459
10.5845
1.60115
-10.2341
-10.9998
-4.89368
4.29703
2.92051
-4.56408
-6.5459
-3.67337
-13.4543
-11.6663
-14.5029
-8.89781
-4.11388
-5.55891
-13.857
-18.9444
-14.2724
-4.87189
-1.05708
-13.0992
-38.9936
-21.4963
-6.51546
13.1823
-28.5635
-94.3449
-37.3432
-8.24317
57.9981
-98.1221
-185.147
-97.4761
-13.6062
139.134
-92.1874
-157.058
-162.141
-14.5844
308.3
434.251
-113.136
-10.5987
380.367
432.892
434.11
408.967
383.801
429.753
433.57
427.66
306.127
370.639
429.151
432.539
420.791
302.891
427.438
-137.825
-35.3352
175.154
-169.382
-60.9037
69.1267
-30.9273
-86.4686
-129.566
-34.1598
27.7964
-0.89402
-42.2717
-51.4749
-15.8727
16.3915
7.43013
-17.6012
-23.9989
-7.82842
9.77779
2.06402
-8.14233
-8.86079
-5.08719
2.80737
2.30649
-5.03163
-4.55523
-2.93478
-5.03246
-10.7293
-21.1337
-7.12634
-3.15764
-1.87403
-13.405
-25.3993
-14.4348
-4.6977
6.33458
-15.8562
-44.1831
-27.6164
-8.97538
38.1059
-77.3089
-131.578
-56.3977
-10.1122
128.509
-110.564
-228.575
-117.784
-10.5174
372.872
435.885
436.807
-7.58521
411.514
429.276
432.869
404.434
303.282
412.725
425.785
430.406
436.091
330.536
411.397
424.283
430.525
423.122
282.98
407.588
423.94
428.751
414.619
332.222
388.938
424.402
429.607
397.56
294.229
345.37
430.033
431.434
422.521
-46.7069
172.22
-60.1728
-103.912
-145.601
-65.8346
52.6773
-15.9221
-80.2027
-103.993
-23.2502
27.1549
7.29164
-27.6447
-29.7723
-10.3536
14.8425
5.35561
-15.6809
-12.8307
-4.89332
8.89235
3.35347
-12.1753
-3.30415
-2.81669
-3.97182
-8.99339
-17.8083
-9.9551
-4.5225
3.59146
-4.0579
-27.1184
-12.8663
-6.5737
24.6019
-33.4551
-11.701
82.2295
-82.2245
-167.844
-79.6642
-13.516
302.9
-204.761
-103.521
-6.31698
412.589
430.168
434.964
390.557
274.31
415.868
426.565
434.036
377.892
261.939
413.908
422.83
432.731
429.688
332.61
412.048
420.08
428.643
430.02
211.941
411.452
421.14
430.475
452.824
312.357
407.217
422.109
429.94
349.381
296.852
385.291
424.961
426.301
427.686
313.563
302.552
427.027
431.133
-147.872
-48.9862
94.2464
-24.9395
-114.598
-166.013
-25.981
39.6688
76.3799
-113.824
-13.8909
18.3505
10.7262
-21.966
-15.2364
-5.98948
8.80101
2.44836
-9.78345
-6.97524
-4.10418
3.60854
-5.80299
-4.36774
-2.5909
-7.65498
-10.6657
-8.19153
-4.51481
-2.02784
-8.47782
-19.2772
-12.6919
-4.30311
5.32353
-12.8388
-36.2007
-24.1601
-7.86258
28.5461
-30.6158
-63.1705
-44.9753
-10.8827
94.8518
-79.9094
-166.391
-98.3321
-26.4783
379.248
435.801
436.738
437.061
-14.7269
415.949
429.056
433.849
386.871
260.467
415.795
424.724
432.53
457.669
172.346
413.402
419.822
423.892
294.655
234.616
407.18
415.831
412.614
334.61
256.761
409.27
416.95
418.833
290.557
226.616
410.168
420.582
429.06
438.575
172.832
397.61
421.693
426.631
411.206
256.935
347.276
429.308
432.02
384.801
314.042
130.124
-52.3569
-106.744
-159.053
-55.8741
30.6668
2.14038
-51.1484
-44.6952
-15.0233
16.3789
1.88722
-15.3861
-18.5139
-7.96211
9.38264
4.01742
-7.33372
-10.2445
-5.04699
1.82393
3.37602
-2.98264
-4.89947
-3.49241
-14.2937
-7.44563
-10.3941
-8.21116
-4.26591
-1.71973
-8.38146
-18.8502
-12.72
-4.40008
5.75337
-12.9699
-36.2089
-24.5908
-8.22164
29.4982
-35.7811
-75.2797
-52.4522
-11.0971
116.026
-69.6504
-162.594
-113.817
-24.5788
384.76
436.713
436.382
419.472
416.568
429.858
434.819
440.414
338.694
416.571
425.033
440.944
447.315
199.098
411.137
419.886
417.542
330.379
276.685
406.747
415.086
403.267
336.618
264.647
405.532
416.855
411.372
332.148
260.44
411.288
420.981
427.023
453.634
207.188
400.694
422.331
427.624
440.297
261.16
352.547
428.675
430.759
414.442
317.223
139.62
-58.311
-116.433
-153.952
-47.5099
27.5275
-5.03209
-46.3105
-47.2931
-15.5732
16.9067
2.35999
-17.8938
-20.1909
-8.59614
9.33978
3.99487
-7.6387
-11.1255
-5.22947
1.63878
3.174
-3.29038
-5.4043
-3.76982
-7.29723
-10.1756
-7.60547
-4.43911
-3.50291
-7.23404
-15.0769
-11.1028
-4.24503
5.19523
-6.81197
-26.1028
-20.6886
-7.45798
32.1858
-14.1972
-57.6797
-51.2451
-11.735
122.737
-62.1065
-154.856
-149.875
-23.1252
373.927
435.912
436.92
412.862
-15.7957
414.608
430.75
434.63
425.942
277.727
417.78
427.398
437.63
438.127
202.082
415.675
422.225
426.544
323.89
232.879
412.545
418.78
416.715
331.221
269.919
413.559
419.802
423.292
329.885
261.221
410.704
423.733
432.164
438.545
144.04
397.218
425.374
428.793
350.903
265.01
336.062
432.432
432.492
421.218
318.893
107.293
-53.1574
-110.838
-158.614
-20.1246
36.3537
3.40467
-53.7529
-66.1224
-12.3674
16.7105
5.49055
-17.4008
-20.066
-5.94333
7.05157
2.40901
-8.17385
-9.19814
-4.95627
0.589593
2.58594
-3.54985
-5.55098
-3.6669
-1.59558
-7.33737
-16.6887
-7.80352
-3.61987
6.54173
-5.20857
-26.2417
-7.24307
-6.24892
25.1102
-17.7392
-9.12425
72.8731
-49.4236
-144.341
-137.225
-17.6423
285.837
-146.173
-140.625
-18.2574
396.049
432.385
435.366
436.927
292.76
414.688
429.021
434.623
431.965
226.153
416.938
427.486
432.359
448.298
322.756
416.626
430.81
438.248
440.679
228.376
412.841
425.617
432.259
429.027
259.454
406.252
425.607
429.985
373.173
260.516
382.662
430.045
429.641
371.981
300.249
288.379
430.562
432.905
-150.628
-22.9179
61.9276
-51.4912
-143.63
-170.663
-14.3527
23.9105
-0.504207
-66.8086
-9.22643
11.2441
12.4789
-25.9726
-19.3024
-5.43562
4.94568
5.29397
-12.4737
-10.1109
-4.21126
1.75061
-7.06425
-5.85877
-3.4004
-4.91988
-9.50669
-19.023
-8.07929
-3.41427
-0.476407
-10.3
-19.8028
-13.6537
-5.59514
7.397
-12.5297
-35.8926
-28.9948
-7.9843
32.9158
-38.7784
-92.9045
-66.8246
-11.6503
125.458
-73.0618
-144.468
-149.076
-24.6634
331.235
437.91
438.404
-23.728
392.065
432.804
434.581
428.78
264.529
404.253
428.822
433.043
445.948
252.691
406.091
428.272
437.111
357.418
169.527
400.762
427.836
431.571
440.248
263.222
382.549
431.425
430.314
402.097
289.776
334.729
433.152
433.674
339.768
-14.091
88.9864
-106.857
-193.146
-151.472
-14.5156
7.75991
-17.2827
-50.9681
-36.8549
-11.4726
2.18162
-9.29515
-35.4308
-27.7505
-7.34792
0.842811
-10.898
-20.7493
-13.0464
-5.46257
-1.06
-7.9214
-19.5548
-7.46921
-3.50749
-12.9576
-8.79404
-12.0513
-8.14279
-4.1893
-5.11166
-9.25222
-13.8161
-10.8378
-4.84513
0.813004
-8.76777
-23.4326
-16.4739
-5.5728
14.8013
-11.9166
-39.1605
-37.6964
-10.127
49.3165
-40.1112
-115.863
-95.6276
-14.8288
120.482
-73.5716
-133.422
-160.416
-34.455
281.463
434.444
-132.759
-128.6
-26.9883
352.373
434.276
436.428
392.657
360.198
434.466
437.07
401.412
318.722
349.16
433.821
435.257
421.377
279.959
433.611
-135.273
-21.5328
92.439
-181.083
-14.8552
30.9817
-37.8487
-92.4889
-66.455
-11.0994
1.76287
-10.9829
-30.1345
-20.0612
-6.3569
-3.37598
-10.865
-18.6467
-12.822
-4.91331
-5.05981
-9.28796
-14.7332
-11.0314
-4.87242
-8.40695
-8.46133
-12.5665
-8.5882
-4.17046
-9.09118
-8.3892
-11.1635
-8.63393
-3.81521
-3.7086
-8.14345
-15.7508
-10.8037
-4.2827
3.67035
-8.40648
-24.4857
-19.3736
-6.3806
20.5614
-2.82229
-47.8534
-28.6458
-9.35347
35.7573
-26.3011
-91.8886
-64.5306
-12.1572
51.8089
-70.1528
-150.81
-92.7215
-13.6247
73.8792
-122.116
-163.972
-95.7532
-22.0636
81.3032
-125.505
-132.565
-17.3118
72.2918
-109.696
-178.876
-106.451
-8.67854
45.8392
-65.6451
-142.956
-95.7148
-12.1784
27.2358
-18.3028
-88.0258
-72.6961
-9.8912
11.3595
-11.3809
-55.2494
-27.7561
-6.73321
-0.213875
-9.89258
-24.6992
-18.2362
-5.08632
-5.15918
-9.88003
-16.148
-12.271
-5.29034
-8.41644
-9.04178
-12.6734
-10.3101
-4.97587
-6.6146
-8.72935
-13.5431
-8.79952
-3.91703
-0.244887
-7.01044
-20.6407
-11.3835
-4.60238
3.48877
-7.29282
-28.0818
-11.4138
-5.68295
3.48511
-9.71522
-27.3698
-20.6916
-7.35101
4.88328
-13.7728
-38.0578
-25.8975
-8.37641
19.0145
-18.7556
-50.6759
-39.961
-9.14481
25.3895
-26.8071
-47.1174
-8.96427
6.0667
-22.2907
-53.881
-26.4584
-8.0111
2.30684
-11.7239
-30.7223
-22.6579
-7.98194
3.98223
-10.3358
-29.0953
-24.5557
-6.11176
0.828423
-5.56399
-29.8967
-16.7061
-4.4417
-3.57421
-8.28645
-22.0887
-11.1825
-4.09756
-8.18784
-9.47144
-14.1285
-9.83905
-4.77492
-8.98018
-11.3775
-8.61617
-4.90179
-4.48644
-2.1765
-3.11452
-4.61677
-8.70525
-15.0655
-9.79413
-4.62406
-1.92889
-7.77857
-16.9597
-13.4009
-5.72464
-2.13158
-8.98237
-20.4708
-13.1461
-4.35908
1.63984
-8.86345
-23.8621
-17.7545
-4.60642
5.36792
-11.055
-20.3206
-4.38232
-2.18379
-13.3419
-25.648
-12.1234
-4.45056
-1.39058
-9.92678
-17.8585
-12.1235
-4.49754
-4.84873
-10.295
-17.3946
-12.9111
-5.40423
-6.52433
-10.1906
-16.3664
-10.3735
-4.46571
-5.66613
-2.36691
-23.3705
-12.6219
-3.44785
-15.3809
-7.05851
-3.95787
-12.0613
-8.12875
-11.4918
-7.6463
-3.96094
-8.36367
-8.16803
-11.1643
-9.29043
-4.62719
-6.51262
-7.98145
-13.648
-10.4081
-4.58595
-4.78594
-8.72035
-15.8448
-10.3098
-4.45706
-1.60491
-10.5691
-11.6843
-4.54145
-5.6217
-11.7215
-16.5577
-10.4005
-4.53691
-8.56917
-10.6921
-13.5638
-10.5473
-4.596
-9.97406
-10.0219
-12.97
-10.345
-5.03949
-12.1482
-9.65038
-12.7189
-8.82607
-4.38657
-13.3613
-7.88433
-12.5851
-8.68521
-4.19564
-10.6861
-10.5958
-5.96303
-3.28427
-13.87
-10.0284
-14.955
-9.03168
-4.22463
-8.72098
-4.68686
-11.5701
-12.1077
-9.47097
-8.38417
-5.00148
-4.12274
-0.224035
-9.07068
-1.08627
-12.2275
-12.019
-20.1054
-12.6175
-9.59552
-20.5511
-10.4644
-8.25866
-4.95318
-10.6374
-3.31492
-4.13001
-0.315652
-2.934
-0.381602
-8.64646
9.18671
-3.42472
-7.14617
-4.59112
-11.663
-12.0641
-8.38251
-22.1796
-2.99502
-6.78056
-4.10065
-2.67264
-0.306117
-3.45537
-0.29499
-4.16195
-5.00522
-10.9413
-11.4291
-8.34558
-6.84008
-4.25369
-3.57881
-0.343291
-8.3714
-8.60347
-11.4366
-11.7432
-9.21605
-8.07388
-4.81451
-3.97305
-0.251756
-14.6636
-8.46163
-10.0359
-8.23711
-8.62724
-11.2368
-8.54176
-10.2345
-11.5137
-9.2076
-11.1198
-9.93878
-8.09487
-4.93697
-8.8016
-5.78606
-4.11908
-0.250205
-4.36224
-0.678135
-9.26172
-8.01529
-7.20175
-7.46803
-8.34095
-10.2184
-8.15439
-11.0052
-11.0917
-10.2667
-12.4103
-11.2182
-9.18632
-6.16021
-10.2399
-6.70122
-4.60845
-0.747288
-4.9559
-0.88947
-12.2963
-7.33714
-6.86531
-7.00984
-5.65341
-6.17703
-7.66143
-11.3908
-8.03883
-10.3999
-7.99287
-11.6548
-9.99919
-12.2271
-10.248
-13.1705
-12.1487
-14.7953
-13.5941
-5.76828
-8.14853
-5.32419
-10.012
-7.40179
-10.7281
-7.67939
-3.93137
-0.566294
-4.31298
-1.6549
-4.41976
-1.72149
-7.03673
-4.95154
-0.845769
-4.27607
-4.96449
-1.37651
-0.185892
-12.5191
-8.80561
-20.4598
-8.3132
-12.6448
-13.6127
-23.7152
-10.5505
-20.8096
-11.7328
-14.5338
-12.6623
-24.6315
-14.475
-5.3711
-6.11318
-4.09404
-9.08836
-7.1945
-6.60533
-4.35934
-0.760889
-3.202
-0.632798
-4.57741
-1.9379
-3.44677
-1.53565
4.24547
-8.09074
-3.31201
0.881606
9.64855
-0.735649
-1.50507
-4.86188
-11.3876
-2.72476
-4.60932
-12.766
-12.0361
-9.06458
-16.5942
-13.682
-12.1383
-3.19356
-6.63144
-4.48586
-20.4991
-5.43097
-9.39889
-6.08462
-0.543089
-3.45502
-0.611669
-4.01805
-1.57021
-4.42199
-1.92703
-4.26395
-4.39826
-1.46123
-2.80148
-2.15448
-3.30249
-10.9005
-4.62813
-8.16881
-6.11859
-10.8317
-5.9526
-8.79364
-9.42778
-8.72741
-7.88644
-13.6412
-12.5082
-10.9328
-10.2001
-4.64889
-7.04668
-4.70387
-8.66936
-6.20491
-8.91592
-6.77151
-0.624615
-4.09249
-0.334877
-4.29813
-1.81354
-4.45392
-1.88463
-2.04925
-3.21682
-3.13516
-3.22164
-7.77346
-5.00152
-7.23468
-4.09524
-7.35808
-7.67432
-9.67686
-9.8676
-8.70367
-9.08213
-4.78922
-8.47288
-6.51761
-8.45247
-5.97731
-0.333625
-4.0486
-1.66826
-4.59097
-0.832252
-3.48428
-3.21878
-5.14209
-2.97813
-3.96415
-7.08755
-3.3187
-6.74884
-8.39102
-8.59016
-8.08106
-7.71627
-8.01335
-5.58554
-6.72153
-4.82166
-4.37732
-0.77509
-3.86068
-0.635797
-5.767
-2.87773
-3.21095
-7.54689
-8.2037
-7.54272
-6.85863
-4.4354
-3.86799
-0.349351
-8.55334
11.7794
-5.17056
-3.57776
-2.94942
-0.543293
-12.9533
-8.30101
-6.87978
-2.76526
-6.6876
-6.50969
-8.55219
-11.9377
-11.2073
-9.52838
-14.2924
-12.3399
-10.0492
-13.6387
-15.5992
-13.2984
-7.92087
-5.01531
-2.56155
-4.45457
-8.32244
-5.55083
-3.79172
-0.539932
-3.3443
-0.620607
-3.597
-1.43712
-8.21682
-7.91269
-7.57897
-6.31098
-6.35141
-5.19391
-6.21734
-11.2682
-8.80044
-10.5652
-9.18744
-13.0583
-8.9492
-12.4988
-10.221
-12.1152
-11.753
-14.7625
-13.6074
-14.8107
-13.9932
-5.53558
-9.15601
-7.14313
-9.83724
-7.08411
-11.1696
-8.06255
-0.711159
-4.00228
-1.60994
-4.5146
-1.92875
-4.75429
-1.9216
-14.0241
-13.4888
-24.5117
-8.26677
-17.0333
-6.32544
-33.6439
-15.2203
-25.7142
-15.5504
-20.9644
-19.3427
-34.5153
-23.2323
-4.5229
-14.0704
-7.67127
-3.24258
-19.0071
-17.9118
-15.126
-13.8101
-26.1513
-21.5411
-20.4802
-1.7325
-2.84166
-2.47144
2.79391
0.397701
1.72628
0.525889
-2.28723
1.54611
0.647438
3.19092
3.76719
-7.56429
-4.23942
-9.81959
-1.43733
-16.2431
-8.21974
-12.2199
-11.1058
-16.2665
-9.475
-4.70336
-7.97625
-5.54557
-4.80653
-4.70964
-0.727366
-3.81556
-1.70128
-3.20252
-0.683553
3.32979
6.79658
0.6656
-18.0552
2.28479
-8.69801
-18.322
-9.75263
-9.7876
-6.41022
-7.58192
-2.27177
-4.62663
-2.33331
-2.08635
-0.53235
-2.0854
-0.286715
-12.3419
-10.672
-11.2636
-13.3276
-13.8769
-10.9522
-9.12538
-5.46535
-4.15233
-0.686583
-6.93708
-2.11529
-10.6892
-10.0403
-6.66511
-7.366
19.1113
-11.5462
-14.0937
-11.1299
-19.416
-37.0337
-14.9155
-12.772
-19.7594
-13.5674
-1.03627
-4.23414
-8.48821
-5.94758
-8.22825
-5.97913
-3.19616
-0.584127
-3.62594
-1.4421
-3.82796
-1.60034
-8.33186
-17.5737
-10.343
-22.6211
-4.61949
-29.7234
-18.204
-14.2508
-22.6446
-13.5929
-28.2691
-20.1373
-22.1726
-6.51394
-36.1734
-13.9599
-33.7977
-9.36543
-66.9591
-26.5269
-36.907
-26.0418
-41.3886
-40.4869
-61.6431
-50.9249
-3.46273
-22.3282
-2.1083
-3.26086
-40.2545
-29.2081
-25.3064
-25.4755
-55.6929
-46.3173
-45.2234
-13.0989
-0.533009
-17.3116
1.78112
-21.3714
7.53919
-16.0193
-13.3606
-17.4971
-9.6796
-24.0719
-21.3624
-17.462
-14.2915
8.81244
-1.68976
3.42328
7.69815
8.49411
4.98393
4.7072
2.13258
-7.5134
4.80378
-11.2992
1.22879
-4.80106
-10.3054
-9.48772
-7.12945
-14.804
-13.0518
-8.91431
-8.8782
-3.19226
-4.30671
-2.92357
-9.06602
-5.36145
-6.39123
-4.94729
-1.1031
-2.26441
-0.582565
-3.81927
-1.65354
-3.62721
-1.69694
3.14411
3.47681
3.12572
2.33839
-6.75242
1.75164
-4.18589
1.9638
-2.19348
-6.10136
-6.25548
-6.86637
-3.17939
-4.85527
-2.91146
-6.22355
-4.22749
-4.32392
-3.85188
-0.41309
-3.5461
-0.748975
-3.17294
-0.412582
-14.7417
-11.5629
-11.3639
-12.3635
-12.7241
-10.6562
-9.21133
-5.91323
-4.43954
-0.608573
-11.3892
-10.6497
-12.9344
-11.366
-9.89252
-10.3026
-11.5544
-12.7351
-11.5273
-12.7416
-11.8454
-13.8482
-13.6978
-12.2749
-13.0069
-11.1776
-14.8994
-13.4922
-9.33153
-6.93166
-9.61764
-6.18968
-10.3298
-7.47675
-4.04482
-1.59264
-4.5151
-0.702057
-4.21199
-1.62279
-23.206
-7.29297
-34.073
-12.6665
-23.1302
-9.55175
-38.9986
-17.2013
-30.3687
-26.4192
-26.949
-24.1988
-41.4369
-32.5789
-30.659
-11.5455
-27.9539
-6.12648
-48.7639
-9.41418
-52.9814
-21.2154
-30.3224
-30.3152
-49.0639
-35.382
-62.3436
-57.87
-56.953
-7.50378
-78.3233
-102.921
-148.723
-79.0102
-174.406
-66.9115
-71.9639
-64.7625
-154.118
-126.536
-178.855
-136.407
-9.23159
-53.2232
-49.8519
-80.8361
-153.608
-70.4611
-61.9221
-63.3078
-131.954
-169.863
-150.529
-21.1531
1.79104
-23.9454
-1.64173
-61.3465
48.9178
-39.7506
-28.3074
-29.1502
-75.906
-127.353
-76.1388
-25.6797
6.41346
-14.9684
19.544
-48.7219
6.85377
-14.2066
-22.5404
-18.5094
-16.8956
-45.049
-56.5471
-18.9611
-24.2791
4.38096
-2.68101
2.71756
7.11784
5.4374
4.42132
4.11662
-2.2889
1.90029
-1.5531
2.4543
-2.66691
2.53246
-0.643745
-7.39965
-3.51357
-5.15103
-7.6355
-9.27816
-5.09772
-6.65788
-5.32411
-4.53682
-4.11864
-9.26832
-6.92448
-7.15984
-6.06415
-1.75577
-3.19906
-0.679022
-4.83922
-2.15203
-3.97629
-1.78641
2.41904
2.97824
3.22355
-1.87533
2.56779
-1.57656
-4.70853
-3.94959
-5.67158
-3.90146
-6.00437
-4.38463
-0.44682
-3.60599
-0.764712
-11.8877
-13.9019
-13.9687
-9.90621
-9.38169
-5.03615
-4.63149
-0.0769875
-13.4022
-11.4616
-17.0275
-11.4331
-10.0931
-10.9369
-11.5538
-12.705
-11.6093
-13.7443
-12.0443
-13.5536
-13.0584
-11.1997
-13.8082
-10.0103
-14.3331
-12.8844
-9.65626
-6.21569
-9.17685
-5.11597
-9.70818
-6.88883
-4.62308
-0.720245
-4.48379
-0.181802
-3.92049
-1.45889
-54.5069
-12.7663
-71.2167
-42.9884
-97.6047
-76.2774
-138.616
-45.9399
-76.8976
-95.5881
-115.349
-105.701
-149.411
-192.801
-80.7811
-89.9946
-103.626
8.73455
-109.914
-124.002
-117.496
-136.418
-165.46
-179.817
-127.787
-136.098
-119.332
-92.6981
-158.316
-128.458
432.887
435.202
-176.08
-178.987
-158.903
-132.175
-139.052
434.449
-53.9075
-116.564
-50.8475
-114.398
-36.0904
-27.6672
-3.6238
-19.9079
-5.60796
-17.0773
-2.41926
-15.6931
-1.09676
-102.692
142.537
-163.249
333.676
428.597
345.612
424.312
-167.027
-127.114
-179.147
434.215
435.262
431.593
434.302
-153.456
-184.188
-138.323
434.493
386.364
433.912
363.257
-50.2589
-121.915
-44.6168
416.516
-25.0861
440.672
-5.97641
-22.5112
-4.31443
-17.6547
-0.927446
0.359578
-112.269
125.782
-123.372
345.754
424.48
338.442
422.834
-117.206
-154.509
431.314
433.666
430.905
433.432
-135.449
-174.14
-170.182
433.4
399.297
432.862
358.499
-48.4423
-142.949
-72.5869
426.181
404.193
-42.538
-4.94637
-31.3907
-6.44925
1.99987
-27.979
-0.920826
-151.063
-67.9845
-115.956
430.923
433.546
429.195
-176.876
-138.163
-170.945
433.001
383.926
-148.692
-82.483
-154.551
-94.4189
415.096
-46.6232
-142.707
-71.6155
-7.23683
-45.2348
-8.33725
-30.4702
-1.71456
-36.2637
-0.869035
-86.4822
-59.1434
-92.933
-114.011
-88.7015
-105.041
-166.713
-113.257
-158.175
-120.062
-147.274
-103.71
-127.916
35.722
49.993
39.0075
104.23
24.2413
72.7332
30.9703
-73.5294
23.6451
-63.3444
-10.2392
-71.4834
-147.778
-57.7115
-85.7002
-92.9938
-143.414
-118.673
-86.4476
-73.3207
-108.332
-137.428
-158.241
-124.666
-34.7661
4.75637
-14.2708
-8.41167
-46.7357
-1.02266
-26.1713
-64.7029
-26.4661
-36.5903
-78.9415
-116.37
-45.3161
-60.1257
3.63123
6.69274
5.08343
3.36795
3.65371
-0.240258
2.72253
-1.48657
2.53034
-2.2763
-6.00306
-6.00355
-7.32537
-4.14424
-5.39725
-5.23086
-7.41731
-5.88599
-4.87546
-3.81906
-1.65943
-3.99323
-1.76597
-3.05517
-0.655187
2.12119
3.26931
2.67675
-2.85248
-3.90074
-4.92155
-4.11584
-3.39295
-3.01308
-0.310408
-17.6182
-12.0158
-9.63497
-7.78503
-12.1781
-14.3273
-12.7269
-19.3145
-14.331
-9.75042
-18.9605
-11.0762
-8.89042
-4.75783
-6.8643
-4.51162
-5.17405
-0.085798
-3.49541
-0.568059
-11.0739
-9.02704
-9.98436
-8.33485
-9.05451
-6.63342
-8.76381
-14.516
-12.7048
-15.2944
-13.4325
-18.1416
-13.5853
-17.9483
-11.2325
-16.3952
-14.5262
-17.6448
-13.9425
-18.8562
-16.1569
-5.54699
-10.6584
-7.5782
-7.61078
-5.80743
-10.1397
-7.09448
-0.555341
-4.31253
-1.66944
-3.55445
-1.41452
-4.32393
-1.74517
-153.397
-107.985
-136.35
-97.0976
-204.436
437.464
-165.329
-165.459
-197.941
-226.465
-176.238
-154.95
-135.854
-127.244
437.077
437.51
430.987
435.127
-177.65
-129.175
-127.268
437.29
-145.924
433.389
374.061
-45.4479
-114.105
-35.3481
-114.802
-23.3484
421.962
316.997
-2.93058
-14.4304
0.418028
-8.51825
-0.242535
314.369
432.374
435.503
431.543
434.008
428.835
432.194
-129.072
434.602
459.05
432.175
404.176
431.386
413.929
-29.5568
423.42
405.302
314.491
417.623
345.084
1.11631
-13.8168
0.458562
316.146
18.8908
274.646
8.19699
434.692
430.539
432.402
426.11
430.918
425.243
429.555
401.007
433.898
341.72
431.055
411.354
430.237
440.187
449.422
349.165
437.568
310.888
442.365
246.989
0.365136
327.005
1.52259
243.813
2.23819
304.365
1.08444
431.601
429.87
433.258
424.46
428.951
423.963
428.694
401.704
432.347
390.475
430.226
432.411
428.36
472.957
320.858
410.33
323.515
423.423
298.636
370.254
292.364
1.84505
1.4648
297.146
293.654
6.46856
433.163
429.182
433.037
424.944
429.359
427.118
430.526
372.365
432.398
-148.33
428.835
413.707
428.327
375.708
-139.196
-57.8422
351.421
225.164
409.566
277.913
1.09156
-39.1069
0.817531
238.296
5.70946
312.195
-8.41708
432.833
-94.0704
424.909
430.916
430.367
432.036
-147.677
-113.573
430.367
547.746
431.234
409.419
-62.4051
-91.8846
-96.1837
402.427
320.316
394.369
-67.7801
0.487967
-66.1489
-4.48826
301.996
-14.5741
-46.2339
1.47546
-77.943
-76.7445
427.899
432.255
-65.989
-92.2534
-99.1577
-137.7
431.78
408.911
-100.444
-144.239
-122.746
-158.085
-132.073
-76.5134
-149.194
-124.606
3.77004
7.30698
6.32409
-3.18509
2.54944
-8.89967
-5.3918
-10.2019
-6.97821
-3.39885
-4.09988
-2.85943
-0.623737
-2.74295
-0.643419
-7.65054
-6.88102
-5.65265
-4.02167
-12.1318
-21.6668
-6.12381
-17.3977
-20.7799
-8.82795
-17.9952
-13.6125
-3.73399
-4.26149
-9.35691
-5.01452
-3.22735
-0.598351
-3.90041
-0.731002
-5.82807
-3.71599
-7.22098
-3.10528
-2.90827
-0.505271
-0.0240706
-21.7309
-12.4158
-23.7703
-5.80287
-17.9335
-6.15376
-26.4057
-10.9435
-23.4848
-17.1415
-18.7188
-15.0687
-27.826
-12.8726
-5.32577
-12.9695
-6.31637
-11.6354
-5.71822
-6.39592
-8.05039
-24.9186
-15.7505
-32.553
-7.42046
-28.6495
-19.8547
-19.8584
-35.5025
-30.3342
-29.7138
-13.9925
-40.3942
-36.9469
-31.157
-55.9337
-20.3627
-63.2877
-41.9929
-123.142
-41.4189
-67.1135
-59.4459
-59.1023
-48.2923
-132.678
-87.5867
-128.12
-130.705
-189.515
-73.745
-161.755
-138.879
-198.162
-101.557
-216.163
-164.741
-178.806
-151.923
-217.137
-147.994
-210.011
437.147
437.817
-203.879
432.443
436.627
-153.921
437.44
-142.578
-210.046
-131.866
435.965
457.485
-31.5564
-111.916
-21.9269
-90.4585
-19.8268
404.936
293.301
-3.18491
-7.26439
-0.131564
-11.4755
1.08373
305.394
-3.08139
434.483
415.889
435.311
369.878
434.952
385.815
-18.8428
431.622
314.486
351.832
273.384
379.739
153.396
0.362527
304.26
302.556
-6.1236
284.802
-0.165146
421.089
431.618
360.157
434.968
410.45
432.28
450.07
309.702
416.156
299.21
418.566
271.847
437.527
256.069
1.52422
333.851
7.4312
291.171
-1.45462
246.351
-75.9737
412.653
430.289
438.27
430.939
556.039
429.782
619.004
318.009
441.289
222.629
421.762
259.077
431.728
274.705
-0.546417
303.877
4.34959
143.809
269.217
-41.8913
428.497
428.432
415.138
430.807
465.478
430.295
426.031
273.9
364.157
305.375
426.852
0.575426
435.953
194.805
267.617
1.46058
194.042
-77.2524
375.319
429.172
440.575
429.933
441.838
429.872
422.689
275.041
422.166
298.066
449.976
228.86
383.57
228.998
5.45657
335.142
-2.92783
161.478
265.186
-0.396507
410.383
431.119
407.158
429.411
208.765
427.572
407.49
291.084
416.142
398.721
145.15
428.977
286.111
-26.9566
1.68293
273.36
0.989795
256.967
-3.14216
432.243
-59.6015
-92.8618
428.728
428.296
427.847
431.763
418.603
-102.968
-141.715
428.026
407.887
430.876
-69.5745
-143.271
-104.249
429.575
285.359
-143.947
-79.0421
0.62359
-71.7946
-5.04822
314.768
-5.30075
-56.6272
-2.29942
-94.8357
-56.2299
-93.7138
426.683
-43.6063
-99.7457
-147.903
-112.106
-146.938
-145.718
-114.697
-152.987
-118.655
-157.997
-117.321
-147.459
-96.2584
-176.583
-134.229
-48.8558
-2.16157
-24.5913
-29.5773
-99.0279
14.9408
-53.3724
-111.102
-41.101
-54.529
-103.43
-154.236
-54.0766
-69.7855
-15.2588
4.35935
-13.477
21.8893
-46.0666
14.6813
-31.695
-16.9003
-18.4549
-47.5485
-50.116
-29.6287
-12.7529
5.99127
-10.6951
8.73685
-27.6405
8.61131
-12.5746
-15.8008
-11.684
-8.94844
-25.5167
-24.2921
-15.6172
-12.5724
8.78718
9.68856
9.92576
1.90394
5.78153
-12.0167
6.86385
-9.30698
4.29313
-5.91906
-7.98629
-11.9686
-11.0446
-7.93215
-6.68819
-2.43005
-8.13889
-2.9107
-4.10485
-2.55808
-1.30565
-2.8523
-1.33251
-2.09093
-0.481959
5.49268
4.11976
-5.42878
-6.61973
-5.8067
-4.32154
-2.56223
-2.20786
-0.262302
-5.97815
-5.88947
-7.64126
-6.87237
-6.79019
-9.05645
-12.8752
-7.63276
-10.3879
-8.36008
-11.2657
-14.5743
-12.71
-10.8905
-8.99013
-13.56
-12.4417
-8.21649
-5.70953
-8.11649
-5.11922
-9.27038
-6.70395
-3.70994
-1.57093
-4.46027
-0.108685
-4.22496
-1.74515
-17.1471
-6.0473
-21.7104
-7.63175
-12.4535
-8.13587
-15.1507
-15.7053
-22.8025
-16.8189
-15.8004
-15.223
-19.8024
-18.2652
-25.2936
-7.17735
-19.807
-11.4624
-29.024
-18.0571
-25.9581
-24.9731
-36.3443
-32.8873
-41.9165
-143.16
-14.7676
-50.1069
-57.6203
-143.21
-146.748
-88.0995
-54.2694
-52.2902
-150.278
-129.231
-35.8899
231.568
-138.214
109.579
-60.315
310.21
431.292
-162.904
-139.93
-196.308
-87.9419
-162.248
435.43
438.115
-129.725
-203.388
-141.42
-162.259
-148.579
437.67
-38.2962
-98.8832
-23.9271
-126.305
-55.1854
-31.9921
-3.85469
-13.8721
-1.59474
-17.0877
-3.73414
-15.5932
-0.545259
-199.538
434.078
435.696
435.435
437.595
432.215
434.916
-127.729
435.414
401.477
436.845
419.872
434.142
419.44
-17.4498
404.472
290.666
428.804
-20.5228
425.772
216.7
0.661036
293.605
3.78099
-13.3214
0.0544007
271.35
1.60186
556.283
433.611
425.644
434.114
356.77
433.535
360.96
267.946
413.506
251.064
414.846
278.007
442.533
36.3025
4.41172
316.619
309.53
4.75871
226.707
-112.892
383.258
435.224
416.028
433.7
437.955
427.844
489.632
200.445
437.304
260.866
436.288
140.462
403.944
164.058
0.239456
353.393
-35.522
206.535
326.485
580.753
428.816
592.455
425.229
436.375
419.219
371.544
217.783
430.329
209.127
344.834
159.929
327.063
271.16
-34.995
233.831
-31.9431
226.374
272.153
515.401
415.115
411.264
414.749
409.091
413.436
410.28
412.579
427.074
420.132
427.504
416.949
419.394
417.44
420.201
470.279
429.33
489.404
418.473
371.935
419.536
350.318
171.695
451.109
67.7009
330.187
268.919
276.277
246.722
166.543
267.769
474.736
241.052
738.809
452.427
431.326
208.494
422.903
392.927
427.223
426.452
207.228
393.616
192.066
266.998
180.17
439.247
232.715
376.355
0.20632
211.48
699.095
257.269
388.605
426.806
408.429
428.684
543.496
427.182
400.908
180.215
426.074
326.604
437.32
228.109
424.754
208.847
-26.3916
284.967
-0.851303
310.27
234.312
-3.54857
428.258
430.017
431.712
423.432
427.159
429.268
430.539
437.92
430.844
426.759
442.509
429.756
356.881
303.033
-75.3553
422.824
234.438
342.51
297.786
-7.99559
-53.2847
0.0417018
260.609
-26.0697
299.431
1.7242
417.618
176.369
8.73325
331.748
418.145
190.563
-62.0283
432.014
-61.5724
-102.695
431.194
432.325
-70.5525
-82.2502
-148.359
-115.758
-152.46
431.116
324.073
-85.3544
-135.007
-89.951
-165.003
-127.89
387.82
302.076
-149.143
-96.1604
-1.42219
-56.1473
-12.9383
1.08691
-51.4597
-10.0787
-111.339
35.0676
-47.338
-81.2579
10.9449
-61.8734
-154.83
-85.7625
-94.3316
-150.898
-78.5228
-125.088
12.8774
-25.923
13.8526
-38.7388
6.24772
-13.2932
-26.2367
-27.2357
-52.654
-74.7551
-25.5927
-31.3023
-16.6451
5.43694
-10.1306
5.72743
-6.67329
4.56045
-4.42513
-20.9899
-12.774
-12.7098
-16.524
-19.3307
-11.4045
-14.0016
7.74154
1.99692
5.38651
8.69716
7.14681
3.97101
4.35359
-5.08102
3.23389
-4.78775
3.30372
-2.86332
3.12495
-1.85261
-9.77354
-6.72648
-6.48519
-7.70305
-9.1403
-3.93384
-5.83275
-5.19128
-4.82519
-3.37748
-8.36899
-6.3477
-5.39524
-4.16219
-1.93418
-2.67092
-0.612267
-4.55523
-1.9844
-3.27285
-0.712547
4.8496
1.08522
3.96235
-4.63727
3.364
-2.1125
-5.44988
-3.2041
-5.11748
-3.01655
-4.89705
-3.95022
-0.402428
-3.45309
-0.502982
-9.50659
-10.2547
-8.71981
-8.02494
-5.33783
-4.43713
-0.213161
-7.64259
-6.25189
-6.57791
-14.2873
-7.53552
-5.91244
-6.37902
-10.121
-7.60002
-10.4191
-7.47194
-9.57885
-7.34245
-10.0504
-9.05362
-13.4462
-12.4491
-10.5214
-9.54108
-13.275
-12.4416
-5.23604
-10.1512
-7.54598
-8.2696
-5.77241
-10.3946
-7.80125
-0.171374
-4.53921
-1.82092
-4.24402
-0.636461
-4.61984
-1.84252
-160.925
436.092
437.941
-69.7693
-146.29
437.291
437.566
-141.306
437.515
-163.343
-140.089
437.064
429.001
-55.6082
-32.7925
-112.185
-57.6145
433.583
-30.4619
-4.07484
-18.8468
-0.856077
-27.9169
-3.44393
-19.1825