/*--------------------------------*- C++ -*----------------------------------*\
| =========                 |                                                 |
| \\      /  F ield         | OpenFOAM: The Open Source CFD Toolbox           |
|  \\    /   O peration     | Version:  4.0                                   |
|   \\  /    A nd           | Web:      www.OpenFOAM.org                      |
|    \\/     M anipulation  |                                                 |
\*---------------------------------------------------------------------------*/
FoamFile
{
    version     2.0;
    format      ascii;
    class       volScalarField;
    location    "81";
    object      p;
}
// * * * * * * * * * * * * * * * * * * * * * * * * * * * * * * * * * * * * * //

dimensions      [0 2 -2 0 0 0 0];

internalField   nonuniform List<scalar> 
146404
(
-7.91147
-3.7547
-10.598
-6.55341
-12.7472
-7.97598
-3.97261
-2.50906
-6.45281
-21.6095
-2.35274
-6.79276
-3.50127
-10.6143
-6.45223
-3.42924
-7.04932
-6.12318
-4.0336
-9.96258
-8.01248
-11.49
-8.53314
-4.23439
-5.66482
-7.7996
-11.8707
-10.4034
-4.7207
-1.48058
-8.10706
-18.9964
-13.8933
-4.39384
-0.554967
-7.07035
-16.1
-11.3049
-4.41882
4.94719
-1.09016
-21.1393
-4.19935
4.08911
-5.28068
-15.4868
-11.2985
-4.73882
2.36434
-3.52859
-10.1663
-9.38084
-4.79021
1.25664
-2.11813
-8.23271
-7.78073
-3.90119
-0.617891
-1.29199
-7.03087
-5.64173
-3.11783
-3.80335
-8.55452
-3.1835
-2.61934
-8.47685
-17.6191
-12.0899
-5.68045
2.52487
-8.69154
-24.5905
-19.378
-7.45107
5.59183
-12.0462
-32.952
-25.9778
-8.24521
8.15227
-7.667
-26.309
-20.2918
-9.62436
15.6005
-6.54643
-36.2893
-9.56325
13.1368
-7.55735
-27.0926
-25.5876
-10.7732
16.3257
-5.44824
-26.0802
-22.7992
-10.9502
10.5585
-1.06703
-15.8321
-15.6239
-7.38683
8.67333
-2.72523
-12.6147
-7.6956
-4.31845
10.1301
-6.45641
-8.78869
-1.39319
7.37093
-3.57854
-2.08576
-1.23077
-9.11824
-11.9832
-15.9458
-10.3985
-4.01564
-2.20711
-11.1748
-23.7349
-12.6245
-5.30875
6.87798
-1.75893
-29.294
-12.4476
-9.58119
13.9163
-12.0535
-34.5108
-31.5019
-11.8028
24.2155
-31.0648
-54.555
-54.8256
-11.0136
38.0682
-33.3518
-73.2155
-49.001
-11.2403
50.3677
3.45726
-88.8332
-11.1093
39.8507
-23.2051
-76.7578
-57.661
-15.9384
30.728
-17.6585
-56.0305
-55.4555
-19.2147
27.1374
-3.11608
-32.1876
-36.1479
-14.8693
22.7759
4.63526
-26.0963
-11.1378
-8.75671
15.6808
7.63469
-9.63927
-8.48959
-4.92193
10.0658
6.72583
-1.92525
-3.93948
-2.73619
7.53752
1.67008
-1.27285
-1.86581
-10.9997
-12.0485
-14.4515
-10.5801
-4.5124
-4.75101
-13.4313
-25.7178
-15.3494
-5.08939
1.46066
-15.0951
-33.4587
-24.3283
-8.91908
24.1856
-12.9308
-57.7191
-28.0629
-12.043
57.3731
-23.4788
-90.9156
-123.51
-20.145
100.78
-84.6613
-163.801
-138.335
-24.5274
118.651
-95.2075
-165.282
-141.699
-28.3448
150.319
-71.0496
-151.125
-20.0205
121.638
-96.8537
-160.033
-161.916
-40.5549
97.138
-79.9169
-130.508
-171.968
-54.6393
65.2153
-3.19002
-88.3211
-138.544
-40.6329
42.9906
20.1804
-42.0654
-55.1993
-22.0472
24.8516
8.80367
-17.1088
-20.7031
-10.0489
16.7136
7.23435
-5.74206
-8.75574
-4.46611
10.2088
8.47325
0.176698
-3.92466
-2.78554
-13.6995
-11.9957
-14.8159
-9.14443
-4.17892
-5.88434
-14.2546
-19.3575
-14.7789
-5.15704
-1.1739
-15.1568
-39.1095
-24.0232
-7.47563
12.5082
-29.2354
-90.5772
-44.9671
-10.7546
58.4685
-108.305
-179.296
-121.683
-15.5682
140.825
-97.5194
-143.197
-179.639
-20.8385
310.119
435.293
-124.296
-16.6954
382.239
433.822
434.954
409.873
385.679
430.797
434.407
428.209
305.38
372.202
430.284
433.659
421.589
305.293
429.097
-144.209
-42.2192
181.771
-132.059
-66.2544
78.6063
-16.9615
-79.0024
-134.297
-42.5435
36.0111
5.85865
-40.0096
-53.3446
-18.304
23.3836
13.7052
-12.5109
-20.3056
-7.50037
16.1187
7.83348
-3.4731
-6.36582
-4.29282
8.70795
7.92054
-0.461818
-1.65346
-1.74622
-5.23074
-11.084
-21.5306
-7.47135
-3.16941
-2.19079
-14.0205
-25.9094
-14.9907
-5.15264
6.00888
-17.8566
-44.6537
-29.1938
-9.11682
37.4472
-75.9107
-129.903
-65.1403
-13.5933
126.332
-132.822
-223.439
-128.708
-15.7922
373.585
436.706
437.683
-12.8012
412.408
430.123
433.78
405.088
303.409
413.764
426.7
431.3
437.041
331.006
412.572
425.304
431.483
424.232
283.011
408.97
425.114
429.878
415.69
331.285
390.826
425.615
430.79
398.418
293.86
348.967
431.727
432.363
423.271
-52.6152
181.042
-36.1072
-79.3891
-145.683
-71.3908
62.7047
-2.46191
-73.8563
-117.773
-29.8307
34.7661
14.941
-22.938
-28.358
-11.5012
21.1955
11.8774
-10.6365
-10.354
-4.59241
14.6267
9.50584
-7.58145
-0.615177
-1.85936
-4.01406
-9.02194
-18.1348
-10.3953
-4.73317
3.62707
-3.99557
-27.6056
-13.576
-7.19295
24.6907
-36.8526
-11.9671
83.0518
-82.6747
-168.047
-108.337
-14.8592
303.268
-209.928
-116.19
-5.85723
413.301
430.958
435.686
391.018
274.025
416.637
427.315
434.812
378.3
264.989
414.793
423.679
433.581
430.5
327.735
413.029
421.043
429.628
431.007
210.646
412.681
422.271
431.585
453.694
314.665
408.75
423.361
431.169
350.647
295.756
387.523
426.302
427.36
428.724
311.39
307.43
429.069
432.105
-126.493
-60.4247
103.641
-4.59555
-79.7992
-133.897
-37.3607
47.094
88.1546
-147.028
-15.9118
24.3281
15.671
-18.1608
-12.755
-5.90828
13.9814
6.81887
-6.46496
-4.98173
-3.53452
8.09039
-2.37282
-2.12365
-1.67188
-7.65433
-10.8884
-8.53478
-4.69142
-1.95475
-8.36139
-19.6505
-13.2532
-4.6061
5.31304
-12.7508
-37.4127
-25.3825
-8.22369
29.1891
-30.3588
-69.6567
-49.7995
-11.7174
97.3629
-67.4044
-182.512
-113.679
-27.9093
380.27
436.481
437.189
437.624
-6.47485
416.52
429.69
434.413
387.219
260.083
416.435
425.326
433.141
457.628
170.502
414.051
420.399
424.591
289.763
230.477
407.926
416.638
413.888
335.965
257.647
410.29
417.974
419.826
288.864
225.389
411.434
421.718
430.108
438.821
175.593
399.344
422.935
427.662
411.842
255.68
350.513
430.596
432.923
384.955
310.841
137.383
-36.3357
-85.9802
-150.206
-62.4155
37.4221
9.80842
-45.5814
-49.0203
-17.2777
21.8005
6.83662
-12.3376
-17.5527
-8.0943
14.4589
8.46556
-3.4637
-8.6144
-4.69094
6.62127
7.79663
0.596106
-2.70428
-2.67319
-14.1838
-7.41119
-10.6311
-8.59043
-4.57757
-1.61898
-8.17149
-19.2659
-13.3642
-4.73329
5.92854
-13.148
-37.4598
-26.0381
-8.62149
30.1208
-33.8282
-73.4266
-53.4197
-11.6571
115.687
-79.5293
-170.705
-120.778
-28.3923
385.128
437.219
436.858
420.563
417.081
430.359
435.317
441.112
335.127
417.118
425.522
441.603
449.043
202.561
411.69
420.168
418.327
329.617
276.974
407.389
415.734
404.497
337.826
266.155
406.216
417.793
412.661
332.972
261.794
412.379
422.066
428.093
454.278
208.961
402.069
423.466
428.551
441.542
261.508
354.91
429.9
431.513
414.999
314.695
145.925
-43.9336
-103.205
-150.569
-53.5031
33.1243
1.48359
-42.6221
-47.4203
-17.2974
21.6877
7.05259
-14.6213
-18.7506
-8.55804
13.9451
8.25966
-3.86789
-9.43882
-4.91641
6.18411
7.38954
0.170525
-3.38765
-3.12582
-7.25384
-10.4076
-7.93966
-4.6162
-3.36757
-7.13343
-15.4639
-11.6541
-4.46816
5.64618
-6.96871
-26.7819
-22.0767
-8.53896
33.0972
-14.9202
-63.8411
-59.2508
-12.2916
126.918
-48.7017
-155.181
-155.059
-34.9293
374.824
436.383
437.306
413.247
-16.7646
415.098
431.128
435.104
426.545
277.82
418.198
427.785
437.988
437.929
204.685
416.042
422.538
426.915
319.987
231.232
412.702
419.265
418.147
329.485
269.16
414.265
420.472
424.009
327.734
259.454
411.637
424.624
433.032
440.591
142.294
398.322
426.385
429.753
351.381
264.119
337.427
433.557
433.563
421.986
317.22
111.084
-50.602
-103.26
-151.082
-26.4673
40.4752
10.621
-47.638
-65.0986
-13.9772
21.103
10.0926
-13.6479
-18.769
-5.94369
11.1842
6.485
-4.93683
-7.5818
-4.61004
4.77328
6.61581
-0.208808
-3.49914
-2.92559
-1.34641
-7.29107
-17.0307
-8.16381
-3.78609
7.02381
-4.94016
-26.8574
-7.68271
-7.10173
25.8569
-18.1023
-11.2831
73.9358
-49.0462
-139.555
-160.843
-22.7439
286.987
-142.057
-154.299
-24.0717
396.651
432.782
435.789
436.971
291.777
415.086
429.448
435.064
432.951
227.855
417.345
427.857
432.777
451.477
322.515
417.155
431.505
438.681
440.755
229.793
413.506
426.354
433.107
429.52
260.709
407.091
426.398
430.795
373.525
259.791
383.667
430.999
430.538
372.608
299.822
289.383
431.697
433.837
-167.969
-26.0405
64.6334
-48.1727
-118.643
-230.636
-15.365
26.7301
-3.58852
-75.504
-9.94712
14.4493
17.6815
-22.3294
-17.803
-5.34293
8.36401
9.50596
-9.36062
-8.62715
-3.90345
5.63437
-3.90103
-4.19144
-2.67483
-4.62179
-9.26914
-18.9738
-8.23485
-3.55507
-0.0144494
-9.95273
-19.6822
-14.0513
-5.94585
8.57459
-12.5547
-35.7315
-31.3922
-9.52536
35.1
-36.2853
-88.32
-74.4039
-16.0728
127.825
-70.3754
-150.301
-156.23
-32.9389
332.296
438.213
438.904
-33.0251
392.197
433.19
435.061
429.305
263.884
404.5
429.113
433.46
446.257
252.52
406.465
428.723
437.62
358.083
167.42
401.328
428.405
432.199
440.75
263.213
383.324
432.21
430.969
402.733
289.255
336.204
433.865
434.49
340.021
-6.92904
91.4318
-106.812
-193.077
-160.49
-17.3246
10.3168
-18.0082
-48.3684
-40.0504
-12.9548
4.06414
-8.1382
-32.9958
-27.8365
-7.26204
2.9398
-9.42595
-19.5573
-12.4622
-5.31325
1.26494
-6.82878
-18.5665
-6.39877
-2.9573
-12.6386
-8.52037
-11.9667
-8.22877
-4.2414
-4.70492
-8.91558
-13.718
-11.1353
-5.1361
1.46481
-8.28728
-23.6405
-17.7834
-6.40379
16.3282
-11.4075
-39.4396
-41.4173
-12.4442
50.1995
-36.2776
-111.334
-120.059
-18.683
119.55
-66.3497
-109.376
-182.372
-45.845
281.123
434.678
-121.43
-150.052
-29.6212
351.979
434.241
436.902
392.578
360.442
434.771
437.61
401.469
317.612
349.453
434.282
435.902
421.74
279.776
434.811
-155.145
-19.7545
93.947
-193.011
-15.0745
32.9715
-37.0962
-90.8872
-77.0107
-12.3555
3.25752
-9.61615
-29.1977
-21.7273
-6.99775
-1.84207
-9.40876
-17.9945
-12.8543
-4.90878
-3.38709
-7.80171
-13.7564
-10.6769
-4.746
-6.60411
-6.99613
-11.5072
-7.85848
-3.8548
-8.70017
-8.063
-11.08
-8.80569
-3.94725
-3.24011
-7.76065
-15.7711
-11.3294
-4.66849
4.36405
-7.90515
-24.5982
-20.878
-7.12174
21.4269
-1.69574
-47.7771
-32.0562
-10.5757
36.8491
-23.0125
-85.7242
-88.667
-14.508
52.7879
-60.6675
-142.568
-116.486
-15.0224
72.841
-116.23
-155.374
-115.497
-22.8663
81.3583
-122.514
-169.947
-19.8075
71.2833
-112.568
-166.69
-116.192
-9.65555
47.1879
-61.288
-139.095
-107.201
-13.1692
28.9975
-16.1062
-86.2938
-90.7627
-10.4407
12.9405
-10.0607
-55.2454
-28.4718
-7.14631
1.23677
-8.72061
-23.9893
-18.6961
-5.27013
-3.74903
-8.63864
-15.3808
-12.1507
-5.18756
-6.95381
-7.68789
-11.7396
-9.86635
-4.76139
-6.18622
-8.44271
-13.5624
-9.05579
-4.11732
0.253572
-6.62426
-20.6917
-11.819
-4.97888
4.00278
-6.89837
-28.0718
-12.1441
-6.21872
3.82308
-9.74558
-26.5548
-23.0556
-8.90432
5.76098
-14.6312
-37.6111
-28.5781
-9.78318
19.9767
-18.9343
-49.4264
-43.8058
-10.4958
25.7711
-24.4687
-52.4664
-10.2225
6.57191
-21.282
-51.9111
-26.8649
-9.00994
2.97906
-11.4919
-29.5199
-23.7524
-9.01836
4.85286
-9.72517
-28.7248
-26.2075
-6.43877
1.86955
-4.8286
-29.8041
-17.1549
-4.68593
-2.45373
-7.23376
-21.4454
-11.1755
-4.15847
-6.97196
-8.3685
-13.3665
-9.50484
-4.69935
-7.75835
-10.4907
-8.14947
-4.6388
-4.08515
-2.414
-3.32188
-4.27818
-8.48438
-15.1033
-10.2503
-4.95454
-1.67319
-7.4312
-16.851
-14.5153
-6.26935
-1.89289
-8.50635
-20.3164
-14.3198
-4.93302
1.96994
-8.59263
-23.7558
-18.9471
-5.067
5.72489
-10.5177
-20.7256
-4.75389
-1.75194
-12.9648
-25.3181
-12.8135
-4.79605
-0.867836
-9.37406
-17.5959
-12.8407
-4.88807
-4.23314
-9.7537
-17.1367
-13.3824
-5.66601
-5.81185
-9.69814
-16.2304
-10.4998
-4.60219
-4.7452
-1.75854
-23.2268
-12.6394
-3.46471
-14.6641
-6.74845
-3.76174
-11.7679
-7.94104
-11.5236
-7.84697
-4.13683
-8.07565
-7.94298
-11.1506
-9.60826
-4.85133
-6.23244
-7.66145
-13.6375
-10.8695
-4.86769
-4.50182
-8.46195
-15.8659
-10.6662
-4.75779
-1.25257
-10.3999
-11.8711
-4.68492
-5.21815
-11.4415
-16.4601
-10.5032
-4.69862
-8.11774
-10.3288
-13.4042
-10.6297
-4.70069
-9.42474
-9.57563
-12.7568
-10.4425
-5.09355
-11.5225
-9.16233
-12.5286
-8.84342
-4.46199
-13.0852
-7.65017
-12.547
-8.84739
-4.39444
-10.3544
-10.451
-6.08618
-3.33277
-13.5055
-9.72617
-14.8436
-9.10309
-4.3505
-8.72948
-4.74863
-10.9659
-11.5647
-9.22686
-8.17052
-4.92016
-4.0523
-0.23604
-7.62193
0.0667312
-11.6466
-11.0972
-19.6245
-12.0917
-9.35055
-20.1217
-10.2046
-8.04132
-4.78779
-10.3999
-3.19049
-3.98678
-0.262033
-2.87147
-0.341672
-7.2012
10.4539
-1.81944
-6.23191
-3.01835
-10.4094
-10.8856
-7.66627
-22.0524
-2.86423
-6.14161
-3.8826
-2.58875
-0.32033
-3.34165
-0.362953
-2.54638
-3.48471
-9.67626
-10.2429
-7.60144
-6.16935
-4.02092
-3.43656
-0.368313
-7.6431
-7.90866
-11.0173
-11.404
-9.21346
-8.12635
-4.97012
-4.17342
-0.301411
-13.8425
-7.71145
-9.06471
-7.37065
-7.91459
-10.807
-7.75545
-9.70168
-11.1648
-9.19164
-10.7266
-9.86285
-8.1256
-5.07271
-8.8448
-5.919
-4.27879
-0.287529
-4.49492
-0.751495
-8.2395
-7.11018
-6.0505
-6.46026
-7.50599
-9.64192
-7.22529
-10.3344
-10.6461
-10.177
-11.8945
-11.0576
-9.22289
-6.26813
-10.2479
-6.7433
-4.71243
-0.819199
-5.02975
-0.95869
-11.0709
-6.29632
-5.68662
-5.90711
-4.41994
-5.02512
-6.67668
-10.783
-7.05528
-9.64238
-6.98411
-10.918
-9.78759
-11.7026
-9.99356
-12.6644
-11.8605
-14.3276
-13.3156
-5.71525
-7.94028
-5.28394
-9.96447
-7.37042
-10.6643
-7.64572
-3.97527
-0.648997
-4.31912
-1.69358
-4.43007
-1.74155
-6.00004
-3.5567
0.306235
-2.97858
-3.80909
0.0429722
1.11598
-11.9092
-7.84815
-19.9759
-7.35196
-12.0143
-12.6689
-23.2888
-10.3111
-20.3717
-11.5056
-14.078
-12.4209
-24.2735
-14.3438
-5.2205
-5.81843
-3.97026
-9.02405
-7.17467
-6.42193
-4.2202
-0.762057
-3.10315
-0.65177
-4.60526
-1.96214
-3.40702
-1.5552
5.50893
-6.42823
-1.69447
2.41939
11.0964
0.934942
0.167376
-3.28385
-10.1121
-1.97297
-2.96616
-11.4383
-10.8918
-8.33085
-16.4384
-12.5254
-11.4853
-2.94803
-6.01844
-4.26902
-20.4732
-5.25382
-8.92934
-5.84277
-0.527365
-3.31745
-0.646375
-3.93408
-1.57393
-4.36315
-1.94446
-2.64125
-2.61118
0.338902
-1.08731
-0.247981
-1.4824
-9.60224
-2.90258
-6.7847
-4.52825
-9.43327
-4.31312
-7.35807
-8.65655
-7.41956
-6.98811
-12.5428
-11.6598
-9.74751
-9.30732
-4.44274
-6.23735
-4.36583
-8.10586
-5.9069
-8.32243
-6.36109
-0.640122
-3.82266
-0.376779
-4.22854
-1.82144
-4.32461
-1.8783
-0.0246274
-1.27635
-0.946877
-1.12798
-6.34577
-3.22543
-5.66592
-2.13543
-5.65443
-6.73922
-8.29989
-8.74784
-7.10304
-7.87377
-4.43568
-7.65997
-5.92631
-7.37243
-5.33538
-0.360411
-3.8332
-1.66275
-4.14653
-0.821198
-1.27032
-1.10298
-2.75009
-0.781922
-1.99608
-5.37836
-1.18861
-5.02944
-6.80976
-7.36665
-6.4599
-6.36885
-6.91428
-4.93384
-5.53282
-4.10372
-3.90773
-0.757546
-3.3238
-0.640275
-3.34655
-0.655954
-1.06195
-5.82321
-6.51295
-6.18876
-5.58444
-3.70854
-3.25362
-0.326883
-8.26652
11.9001
-5.41661
-3.74538
-3.04078
-0.545522
-12.1737
-7.58298
-6.49106
-2.22602
-6.02741
-5.85291
-7.85747
-11.4926
-9.02709
-8.79504
-13.8057
-12.0276
-10.0637
-13.9438
-15.4193
-13.3677
-7.98689
-5.18974
-2.93255
-4.6384
-8.53959
-5.76558
-3.9081
-0.598136
-3.46706
-0.642465
-3.77552
-1.52345
-7.4642
-6.98057
-6.70683
-5.5123
-5.60613
-4.25821
-5.34754
-10.8116
-8.06487
-10.0152
-8.4576
-12.5452
-8.16747
-11.969
-10.2096
-11.7986
-11.6504
-14.5277
-13.6454
-14.5595
-14.0981
-5.71201
-9.27449
-7.29045
-10.086
-7.36154
-11.4751
-8.41937
-0.722471
-4.12356
-1.69042
-4.75896
-2.05147
-5.09091
-2.09738
-13.4279
-12.6074
-24.1246
-7.11601
-16.2902
-5.09877
-33.3146
-15.1221
-25.41
-15.4944
-20.4871
-19.4762
-34.4145
-23.6357
-2.8152
-12.7507
-6.72958
-1.32139
-17.7502
-17.9546
-13.9774
-13.188
-26.6086
-20.5317
-20.1094
0.483812
-0.422951
-0.234111
5.33875
2.72599
4.31413
2.98441
0.0030591
4.35712
3.21293
6.63221
6.48661
-5.83739
-2.33092
-8.19699
0.178067
-14.8414
-6.80346
-10.6005
-9.56492
-14.704
-7.56883
-3.89733
-6.49767
-4.51187
-2.87806
-3.53746
-0.658512
-3.34897
-1.5336
-2.36755
-0.569592
7.04331
9.60302
1.56675
-16.6181
7.82108
-4.15041
-16.7979
-7.55478
-5.5654
-3.93225
-5.23936
-1.07743
-2.40656
-0.828632
-1.20825
-0.391388
-0.756068
-0.183575
-12.4807
-10.917
-11.5595
-13.6846
-14.2219
-11.2434
-9.40705
-5.66221
-4.28887
-0.737303
-6.71953
-2.24565
-10.8015
-10.2806
-6.65669
-7.54165
18.0446
-11.9206
-14.5187
-11.6643
-19.9555
-36.7157
-15.3008
-13.0944
-20.2564
-13.9164
-1.29589
-4.41736
-8.82912
-6.21931
-8.58053
-6.26823
-3.2916
-0.601107
-3.80951
-1.5487
-4.00851
-1.67404
-7.49056
-17.1414
-11.0353
-23.2148
-3.15246
-29.3783
-17.9676
-14.4811
-23.1759
-13.9489
-28.1713
-20.9615
-21.167
-5.22454
-35.8673
-13.3629
-32.7176
-7.19936
-67.5648
-27.2059
-36.8522
-26.7086
-41.2779
-42.1294
-62.8216
-54.4841
-1.37652
-21.1015
0.778484
-0.870414
-40.0553
-29.9974
-24.3494
-25.5569
-61.4186
-46.6318
-47.6655
-11.4553
0.116593
-15.829
2.95115
-19.9627
14.1139
-10.9662
-11.7007
-15.933
-7.41084
-22.3055
-18.7102
-12.9399
-11.5947
11.016
3.05668
8.53566
12.5441
13.759
10.0911
9.94006
7.57257
-2.84072
10.9557
-6.27192
6.632
0.195378
-7.98229
-5.3602
-4.46984
-10.492
-10.3443
-4.85648
-5.73816
-1.77398
-2.04748
-1.45759
-6.85479
-3.8257
-4.09897
-3.23187
-0.822861
-1.19558
-0.431375
-2.99315
-1.35451
-2.68125
-1.31485
8.30642
8.78521
8.45169
7.75259
-2.20465
7.05215
0.59916
7.31196
2.50065
-3.39716
-1.96074
-3.77274
1.30808
-1.59859
-1.49214
-3.5799
-2.62407
-1.37798
-2.16411
-0.364368
-2.39363
-0.593231
-1.81768
-0.359153
-14.9688
-11.8222
-11.6398
-12.6706
-13.036
-10.9394
-9.47259
-6.1133
-4.58189
-0.685734
-11.5398
-10.8935
-13.1577
-11.6205
-10.0847
-10.5474
-11.8577
-13.0831
-11.7997
-13.0684
-12.1479
-14.1817
-14.0497
-12.6038
-13.3277
-11.4821
-15.2452
-13.8393
-9.67415
-7.21696
-9.89279
-6.41098
-10.7285
-7.78467
-4.21185
-1.68853
-4.6495
-0.77053
-4.38234
-1.71754
-23.8517
-5.51336
-33.7297
-13.1535
-23.9326
-10.3704
-39.793
-17.6965
-30.3488
-27.6049
-27.4517
-24.84
-41.9618
-33.568
-30.2995
-10.2139
-27.5321
-7.15148
-49.5154
-7.35743
-52.2318
-22.1023
-30.3379
-31.7564
-49.637
-36.9137
-59.5504
-64.3594
-56.8747
-5.37494
-79.3242
-95.7648
-141.382
-71.8904
-150.883
-71.8923
-73.6343
-69.6684
-156.334
-139.047
-164.498
-167.4
-6.51679
-53.9369
-31.1339
-73.407
-140.213
-76.9606
-64.6351
-68.094
-161.176
-162.857
-172.524
-21.0239
2.97827
-23.1222
0.868429
-59.9525
60.3547
-37.5047
-26.8707
-25.4806
-73.0243
-101.064
-80.9484
-24.5829
13.2668
-9.60663
29.7955
-42.0807
13.4187
-8.26618
-18.9004
-14.0598
-13.9833
-40.4928
-56.2708
-14.6049
-21.0501
9.90592
2.87939
8.19795
12.9388
11.1687
10.1947
9.80415
2.75205
7.25295
3.25334
8.01336
2.52808
7.96149
4.50917
-3.88995
0.921033
-1.75875
-3.03257
-5.68693
-0.374185
-2.88279
-3.46596
-1.61723
-2.36829
-6.69301
-5.11973
-4.45113
-4.04699
-1.36261
-1.94795
-0.564208
-3.93204
-1.80667
-2.98185
-1.43828
7.89242
8.7931
8.84797
2.87078
8.08714
3.44324
-1.40772
0.757046
-2.21018
-2.22967
-3.11737
-2.65458
-0.420363
-2.4067
-0.626745
-12.2108
-14.2245
-14.277
-10.1673
-9.62114
-5.13892
-4.74552
-0.156954
-13.6428
-11.7215
-17.2722
-11.7326
-10.3544
-11.2146
-11.8273
-13.0216
-11.9249
-14.0695
-12.3531
-13.9035
-13.3619
-11.4719
-14.1194
-10.2692
-14.6382
-13.1633
-9.91087
-6.4028
-9.42534
-5.24214
-10.0239
-7.11559
-4.72164
-0.766665
-4.56976
-0.214384
-4.0591
-1.54885
-55.188
-11.1191
-69.5999
-44.0279
-96.3541
-82.0105
-125.071
-48.8491
-75.0432
-103.301
-114.977
-120.866
-129.761
-203.915
-80.8818
-93.1143
-106.095
8.26999
-99.5438
-126.965
-111.727
-125.607
-156.717
-198.297
-128.1
-135.088
-125.885
-87.4267
-146.239
-131.772
433.985
436.15
-178.065
-163.795
-160.564
-134.269
-139.501
435.461
-69.8214
-131.212
-60.6054
-124.892
-47.2083
-38.0013
-5.0406
-25.6885
-7.33091
-24.2611
-4.77783
-23.275
-1.11681
-96.1175
149.524
-131.515
335.384
429.618
348.705
425.537
-149.484
-100.402
-145.888
435.14
436.09
432.406
435.148
-161.827
-158.897
-167.023
435.417
386.897
434.761
364.264
-59.0358
-147.277
-44.9063
417.663
-33.2948
441.84
-7.17578
-20.4171
-4.27699
-23.5197
-0.293894
2.00833
-95.7067
129.19
-117.86
348.771
425.74
340.707
423.52
-106.5
-138.223
432.227
434.457
431.899
434.513
-162.373
-162.468
-185.252
434.205
400.887
434.027
358.998
-44.3092
-160.482
-70.7683
427.19
404.898
-38.6805
-3.97196
-31.1161
-6.54503
3.09857
-23.8271
0.201997
-136.493
-70.8672
-114.821
432.179
434.687
430.835
-182.668
-138.036
-184.652
434.176
384.646
-154.484
-86.4247
-162.291
-100.737
415.919
-45.2004
-151.149
-75.3815
-7.92194
-48.0584
-10.3225
-26.9902
-0.576886
-39.0505
-2.15346
-89.0358
-55.0612
-92.8411
-114.449
-81.367
-100.074
-172.567
-112.888
-149.237
-121.55
-148.192
-103.571
-125.828
40.7456
56.1794
46.3669
111.063
35.3298
80.3297
41.5793
-77.829
34.2424
-55.2781
4.3907
-68.7162
-122.085
-52.1755
-88.5564
-90.679
-121.266
-137.425
-93.6059
-91.3398
-112.295
-143.837
-127.866
-142.061
-27.661
11.8977
-7.34805
1.33975
-37.3247
6.74361
-16.4915
-62.1269
-22.3005
-31.7421
-75.0217
-111.654
-41.3795
-57.3333
9.31255
12.7823
10.9336
9.30284
9.40481
5.00722
8.33434
3.83479
8.14673
2.71202
-2.22334
-1.24707
-3.64113
0.451579
-1.96889
-3.31154
-4.91642
-4.05302
-1.92729
-2.09934
-1.37967
-3.1762
-1.4979
-1.84213
-0.572415
8.03711
8.97364
8.30331
2.00525
0.775936
-1.50137
-1.13546
-1.64722
-1.7167
-0.28197
-17.8627
-12.3229
-9.85029
-8.09499
-12.4972
-14.6526
-13.2043
-19.7019
-14.6372
-9.99973
-19.3021
-11.3045
-9.12627
-4.8989
-7.11603
-4.73383
-5.21267
-0.16201
-3.63393
-0.595314
-11.3796
-9.28996
-10.2497
-8.56388
-9.34971
-6.87586
-9.06516
-14.8669
-13.0682
-15.7104
-13.8326
-18.5718
-14.0045
-18.3909
-11.5104
-16.7322
-14.7465
-17.973
-14.2593
-19.23
-16.421
-5.73969
-11.0691
-7.9013
-7.92971
-6.04753
-10.6032
-7.43243
-0.600316
-4.51047
-1.77717
-3.62953
-1.48084
-4.53207
-1.85354
-146.739
-112.918
-127.709
-118.586
-209.666
438.094
-185.674
-148.989
-205.182
-228.518
-188.427
-181.313
-128.97
-129.122
437.922
438.404
431.908
436.014
-191.118
-129.199
-131.219
438.189
-171.168
434.275
374.939
-59.6627
-123.628
-39.6038
-134.051
-32.4201
422.398
316.795
-4.5081
-17.331
-0.0395529
-13.3817
0.527144
314.167
433.548
436.422
432.432
434.905
429.782
433.11
-134.398
435.541
460.489
433.115
405.034
432.29
414.785
-39.8751
424.225
406.01
314.313
418.431
345.13
0.83619
-22.7596
0.701042
316.258
19.0319
274.702
7.96526
435.522
431.463
433.286
427.057
431.829
426.241
430.478
401.72
434.762
342.888
431.967
412.21
431.166
441.048
450.876
348.452
438.43
311.276
443.443
246.667
0.656872
326.291
1.91031
244.311
2.21722
303.735
1.74054
432.598
430.757
434.145
425.548
429.946
425.091
429.77
402.991
433.325
391.513
431.167
433.196
429.473
473.989
320.077
411.245
322.982
424.512
298.325
371.224
292.375
2.18615
1.79213
296.291
293.39
5.93335
434.251
430.813
434.265
426.166
430.495
428.419
431.689
373.2
433.602
-155.68
429.953
414.674
429.452
376.575
-148.038
-62.6427
352.37
225.152
410.175
278.151
1.48575
-43.4766
-0.833145
238.479
6.07134
310.597
-7.62575
434.04
-86.5646
426.363
432.061
432.423
433.084
-153.028
-112.87
431.474
548.313
432.176
410.086
-69.9512
-91.8086
-101.606
403.351
318.786
394.774
-73.6277
-2.94274
-71.0486
-13.9429
300.481
-13.5095
-53.443
-13.2758
-57.1575
-65.1604
429.989
433.321
-42.3975
-73.8469
-91.6723
-119.59
432.782
409.514
-82.711
-128.517
-126.679
-137.276
-132.056
-81.2881
-137.819
-128.034
9.53444
13.1045
12.1261
1.77805
8.40746
-3.95435
-1.99579
-5.73729
-3.86068
-1.68248
-1.42036
-1.2936
-0.504385
-1.6023
-0.504133
-7.83465
-7.27102
-5.72478
-4.06191
-12.6375
-22.0778
-6.06603
-17.6013
-21.1753
-9.12466
-18.2813
-14.0496
-4.01331
-4.4421
-9.80163
-5.28413
-3.34297
-0.613193
-4.12777
-0.750871
-6.13061
-3.92673
-7.61828
-3.23047
-2.93241
-0.650899
0.0245652
-22.1545
-13.0283
-24.3353
-5.71234
-18.1592
-5.79665
-26.7478
-11.3097
-23.9568
-17.5061
-19.034
-15.5231
-28.2493
-13.5845
-5.56629
-13.5037
-6.69752
-12.0036
-6.02506
-7.01924
-8.54534
-25.4892
-16.545
-33.1978
-6.83571
-29.0084
-22.8122
-20.3713
-35.6531
-31.159
-30.1553
-14.7517
-42.0067
-37.6538
-33.5977
-56.8943
-23.1638
-65.0942
-43.4191
-123.84
-42.3343
-68.2662
-62.5984
-60.9761
-50.7691
-134.463
-101.416
-120.989
-141.696
-188.25
-75.2493
-165.821
-144.121
-201.51
-108.69
-204.032
-165.702
-187.639
-174.434
-225.231
-165.472
-217.521
437.948
438.698
-209.265
433.248
437.415
-165.721
438.294
-166.119
-216.859
-145.791
436.721
458.026
-39.2889
-129.408
-29.7425
-101.054
-21.3824
405.397
292.585
-2.96634
-9.12735
0.704047
-12.0899
2.21944
304.462
-2.40759
435.382
416.561
436.096
370.488
435.769
387.023
-27.0678
431.852
314.359
352.441
273.095
380.88
153.784
0.990641
303.938
301.536
-5.04102
286.284
-0.295095
421.936
432.506
361.192
435.801
411.224
433.166
450.749
309.449
417.018
299.858
419.611
273.602
438.462
258.088
1.54696
334.258
7.11992
293.558
-1.68087
256.367
-84.9404
413.681
431.22
439.156
431.892
557.064
430.772
619.329
318.613
442.492
222.986
423.005
258.866
433.784
274.721
-0.453343
303.419
4.26161
145.556
269.659
-31.4215
429.36
429.534
416.238
431.822
466.498
431.408
427.469
273.929
365.041
305.051
428.417
2.47094
436.746
195.099
267.634
1.10481
193.906
-80.5654
376.364
430.327
441.716
431.07
442.386
431.087
425.096
275.228
422.737
297.269
451.434
230.928
383.731
228.172
5.38098
334.396
-2.53596
161.324
264.486
-1.75051
411.892
432.156
407.938
430.64
209.12
428.763
408.121
290.398
416.649
399.489
146.149
430.085
285.062
-24.8215
-8.85723
272.875
-0.925901
256.471
-2.7628
433.218
-35.1791
-72.2314
430.204
429.379
429.701
432.778
419.427
-82.7801
-127.832
429.049
408.272
431.901
-74.625
-138.052
-114.256
430.666
284.124
-128.512
-87.9047
-14.338
-79.5848
-11.4367
311.712
-4.97869
-68.5969
-9.63511
-70.9998
-31.9722
-60.5953
428.679
-24.9681
-66.3759
-133.659
-79.179
-121.501
-124.64
-86.4757
-120.635
-130.741
-149.019
-135.961
-127.327
-99.1243
-147.726
-141.27
-35.9561
6.13047
-14.9258
-8.23423
-62.135
25.1666
-43.0217
-111.477
-38.5903
-54.3652
-71.4043
-127.911
-45.64
-67.7639
-7.25375
11.1138
-7.25441
31.8774
-36.5563
18.5748
-28.977
-11.605
-15.3498
-39.7205
-50.2294
-27.3165
-7.00334
12.1506
-5.58236
12.7755
-23.6078
13.0709
-8.83168
-12.7209
-7.16148
-5.95559
-21.751
-21.9012
-12.2647
-10.0388
14.6348
15.0221
14.8595
6.94763
10.4278
-7.14541
11.2514
-5.60492
8.76021
-2.32613
-5.01888
-8.63839
-8.50967
-4.62699
-4.18306
-1.04949
-5.82351
-1.43588
-1.86774
-1.3092
-0.978732
-2.17161
-1.0539
-1.24049
-0.394926
10.1331
8.5847
-1.86755
-3.21973
-3.37345
-2.08705
-1.41779
-1.28258
-0.317377
-6.00563
-5.91903
-7.64053
-6.85197
-6.75744
-9.10549
-13.0749
-7.6454
-10.5858
-8.36985
-11.4296
-14.9037
-13.0919
-11.1259
-9.3281
-13.8676
-12.833
-8.61272
-6.0176
-8.45055
-5.34335
-9.69078
-7.01268
-3.92844
-1.64148
-4.61775
-0.166207
-4.44029
-1.8239
-17.406
-5.87019
-21.9629
-7.5993
-12.6872
-8.11597
-15.3941
-16.1696
-23.2526
-17.504
-16.2011
-15.7485
-20.2418
-19.0725
-25.6002
-7.39605
-20.122
-11.6291
-29.3779
-18.8227
-26.5577
-26.0909
-37.8797
-34.698
-44.0868
-143.756
-14.9699
-51.8777
-55.7807
-149.146
-147.927
-108.841
-58.6163
-56.8596
-160.947
-142.613
-37.3819
232.118
-141.111
112.687
-56.0702
311.727
431.877
-160.902
-143.74
-197.859
-80.5036
-163.866
435.994
438.73
-170.983
-206.285
-160.872
-175.428
-155.121
438.236
-43.4331
-111.481
-24.6585
-144.052
-63.1671
-25.0608
-3.57837
-13.0731
-0.257636
-17.4965
-3.27804
-9.51076
1.06815
-202.508
434.816
436.415
436.018
438.114
432.887
435.588
-143.4
436.093
402.111
437.317
420.087
434.717
419.862
-17.7052
404.982
290.457
429.175
-11.7056
426.179
215.887
2.72108
292.703
2.5001
-5.60087
2.69942
270.561
1.27154
557.119
434.396
426.456
434.728
357.314
434.205
362.658
267.983
414.493
252.932
415.374
277.193
442.949
22.4885
2.32771
318.354
308.92
4.46538
228.248
-115.024
383.872
435.969
418.159
434.348
439.207
428.442
490.667
202.906
437.982
264.577
437.106
138.788
401.87
166.135
0.203437
354.226
-37.4014
208.448
325.662
582.066
429.781
593.01
425.906
436.337
420.281
372.043
221.671
431.325
209.247
340.642
163.258
325.53
269.054
-35.6037
231.893
-24.3572
225.234
270.861
527.742
416.05
412.375
415.85
409.882
414.194
411.274
413.539
428.062
421.211
428.568
417.858
420.506
418.504
421.413
471.095
430.382
490.527
419.426
373.073
420.736
349.103
173.19
450.839
69.4779
328.272
267.499
274.88
241.248
163.897
267.628
491.638
239.836
756.772
453.162
432.518
209.942
423.902
393.652
428.194
430.137
209.563
394.114
191.827
264.444
182.768
440.368
234.094
373.886
-3.45079
210.378
715.425
262.587
390.479
427.91
409.217
429.903
548.016
428.266
402.083
180.701
427.236
325.899
437.762
230.523
425.466
209.454
-31.3835
283.451
-1.78185
313.208
233.079
-3.17789
429.412
431.583
432.721
424.672
428.333
430.513
431.627
438.961
431.861
427.836
443.116
430.709
356.658
301.293
-82.6362
423.393
233.931
342.599
295.356
-8.47221
-65.5467
-6.41809
259.187
-25.4646
297.103
-3.92487
420.96
184.277
22.6895
335.524
419.747
198.044
-45.1889
433.028
-41.3804
-69.966
432.563
433.338
-51.6986
-56.1093
-125.825
-87.8471
-124.368
432.011
324.28
-62.3758
-120.242
-92.0515
-129.936
-127.863
388.095
299.651
-130.898
-109.879
-8.53237
-73.8901
-19.6659
-5.65205
-64.9236
-15.6446
-77.5474
47.7756
-32.9208
-55.2574
20.3052
-46.5652
-129.568
-94.3919
-74.2295
-140.849
-61.2946
-118.561
17.7003
-21.4519
22.6324
-29.9153
12.2029
-7.84519
-22.2783
-24.8042
-43.2392
-76.1248
-21.7087
-29.7476
-12.1824
10.038
-6.22147
10.672
-1.6708
9.28765
0.0171156
-18.226
-9.31084
-10.1202
-12.9193
-16.8506
-7.95987
-11.4095
12.7442
7.019
10.0771
13.8145
12.0833
8.81975
8.96137
-1.20652
7.62776
-1.09435
7.76444
1.20763
7.54739
1.98198
-7.05069
-3.35984
-3.96104
-4.26607
-6.44903
-0.45872
-3.32628
-3.92072
-2.6206
-2.17494
-6.53847
-5.24269
-3.26349
-3.06575
-1.71984
-1.82229
-0.54015
-4.03142
-1.80427
-2.54861
-0.658166
9.46301
5.89966
8.50191
-1.02292
7.80675
1.63473
-3.0036
0.365388
-2.69962
-1.905
-2.70108
-2.92362
-0.387684
-2.61749
-0.411975
-9.6925
-10.4912
-9.07892
-8.40147
-5.62806
-4.75077
-0.237397
-7.63005
-6.19851
-6.5038
-14.2015
-7.49307
-5.82622
-6.27493
-10.3112
-7.56158
-10.5322
-7.44413
-9.76064
-7.28179
-10.1628
-9.39705
-13.7514
-12.8597
-10.7649
-9.90768
-13.5822
-12.8779
-5.46965
-10.649
-7.90317
-8.64845
-6.10525
-10.9257
-8.1754
-0.185801
-4.77848
-1.92546
-4.54347
-0.721366
-4.87344
-1.94843
-166.866
436.584
438.528
-80.1829
-151.654
438.188
438.208
-154.07
438.081
-171.822
-146.052
437.676
430.142
-60.8869
-26.1753
-119.058
-62.4011
433.952
-33.2832
-4.41944
-13.5064
1.26991
-29.2616
-5.02731
-22.3206