/*--------------------------------*- C++ -*----------------------------------*\
| =========                 |                                                 |
| \\      /  F ield         | OpenFOAM: The Open Source CFD Toolbox           |
|  \\    /   O peration     | Version:  4.0                                   |
|   \\  /    A nd           | Web:      www.OpenFOAM.org                      |
|    \\/     M anipulation  |                                                 |
\*---------------------------------------------------------------------------*/
FoamFile
{
    version     2.0;
    format      ascii;
    class       volScalarField;
    location    "70";
    object      p;
}
// * * * * * * * * * * * * * * * * * * * * * * * * * * * * * * * * * * * * * //

dimensions      [0 2 -2 0 0 0 0];

internalField   nonuniform List<scalar> 
146404
(
-8.05875
-3.78928
-11.6599
-7.39147
-13.1851
-8.16154
-4.13921
-3.74978
-7.17492
-22.168
-2.45574
-8.23107
-4.84153
-11.6084
-7.04159
-3.55035
-8.20994
-6.86557
-4.32472
-10.6785
-8.618
-11.7583
-8.48981
-4.14403
-6.59255
-8.52135
-12.228
-10.2871
-4.55682
-2.56652
-8.97212
-19.4154
-13.4817
-4.17306
-1.73994
-7.90885
-16.5275
-11.2065
-4.30726
3.53645
-1.2685
-21.1969
-4.19808
2.42309
-6.65177
-16.4103
-11.4227
-4.58608
0.528477
-5.04579
-11.367
-10.2008
-5.00194
-0.660734
-3.69336
-9.47489
-8.64182
-4.1305
-2.65135
-2.98792
-8.37573
-6.71884
-3.61201
-4.11253
-8.33449
-3.09759
-3.32278
-9.14648
-17.7583
-11.8601
-5.54801
1.51834
-9.73453
-24.5311
-18.7399
-6.50018
3.96282
-12.5543
-33.8875
-25.29
-7.57425
6.49006
-8.67566
-26.8052
-19.2711
-9.0408
13.8487
-7.42851
-35.3326
-9.35278
11.1593
-8.80624
-28.0298
-26.3708
-10.3321
13.5887
-6.83329
-27.6596
-24.9545
-10.7183
8.17577
-2.41296
-16.8636
-16.6211
-7.43937
6.09965
-4.11215
-13.9782
-9.10784
-4.79785
6.6639
-4.4137
-11.1684
-2.02279
3.05162
-6.98272
-3.97178
-2.18392
-9.09746
-11.7514
-15.6344
-9.96583
-3.78543
-2.255
-10.741
-23.2983
-12.2681
-4.94099
6.19452
-2.98987
-29.2561
-11.7402
-8.44971
12.2225
-12.6628
-34.1447
-28.8376
-10.0553
21.6934
-32.7715
-54.8149
-51.2007
-10.3566
36.2234
-33.8885
-70.5608
-44.3371
-10.5752
47.9309
0.548333
-82.1523
-11.1984
37.9772
-24.5384
-73.2428
-56.0821
-15.0333
28.1236
-21.3439
-57.3235
-56.3644
-16.9623
24.1525
-5.37861
-34.2911
-39.0019
-14.4882
19.0669
3.83475
-27.1204
-13.6221
-9.48615
11.2671
2.91918
-12.8085
-10.1642
-5.6221
5.55461
2.39464
-5.30027
-5.97106
-3.58145
3.17697
-1.97996
-3.66959
-2.92769
-10.8952
-11.8909
-14.2379
-10.3478
-4.41458
-4.72515
-13.0032
-25.2384
-14.3984
-4.64564
1.62101
-14.5576
-32.8335
-22.8756
-8.34435
23.6794
-12.0171
-57.999
-27.5025
-11.8564
55.2554
-24.7055
-93.4659
-102.885
-14.8786
98.4756
-87.7567
-157.802
-127.131
-18.7447
114.924
-104.393
-180.625
-130.293
-22.3899
144.952
-84.8672
-141.369
-23.1324
119.668
-103.366
-166.723
-156.668
-38.224
95.523
-81.1936
-128.056
-166.106
-45.9021
60.9533
-6.48067
-90.6236
-162.657
-33.5765
37.3274
12.7467
-45.8744
-51.9059
-19.1753
19.2946
3.7198
-19.2428
-21.5237
-9.45827
11.7356
2.64966
-9.36066
-10.5345
-4.81798
5.40279
3.96629
-3.66318
-5.99695
-3.49034
-13.6015
-11.8126
-14.6301
-8.99258
-4.15721
-5.72535
-14.0166
-19.0855
-14.437
-4.93829
-1.19137
-13.4903
-39.1224
-22.0814
-6.6958
12.9492
-28.8237
-93.9163
-38.7647
-8.70861
57.6795
-99.1008
-185.057
-101.921
-14.0548
138.985
-92.802
-153.028
-166.747
-15.1803
308.341
434.211
-115.629
-10.6835
380.46
432.842
434.018
408.9
383.93
429.721
433.496
427.546
305.896
370.723
429.133
432.48
420.683
303.09
427.483
-139.886
-36.3011
176.04
-163.583
-63.2137
70.6152
-27.7989
-83.2898
-130.865
-35.6932
29.3314
0.50225
-41.2734
-51.8562
-16.2308
17.6951
8.61915
-16.5315
-23.3884
-7.71483
10.9479
3.15574
-7.24063
-8.35218
-4.92729
3.8806
3.36363
-4.16267
-3.9902
-2.70393
-5.1796
-10.8905
-21.2681
-7.24075
-3.18395
-2.04678
-13.6019
-25.5596
-14.6241
-4.79091
6.16007
-16.2667
-44.3848
-28.2109
-9.00716
37.7845
-77.0711
-131.687
-58.0972
-10.887
127.817
-113.7
-226.991
-120.491
-11.022
372.721
435.775
436.708
-7.63449
411.441
429.198
432.777
404.355
303.605
412.687
425.717
430.325
436.045
330.827
411.382
424.24
430.449
423.083
282.983
407.596
423.919
428.701
414.565
331.976
389.019
424.418
429.557
397.429
293.863
345.731
430.119
431.361
422.379
-48.4065
173.497
-56.6322
-99.0686
-145.971
-67.1421
54.3627
-13.1683
-78.1143
-107.737
-23.9714
28.5339
8.78817
-26.6473
-29.7173
-10.5656
15.9828
6.54565
-14.7115
-12.3632
-4.88083
9.90737
4.42627
-11.3008
-2.81932
-2.6846
-4.09895
-9.10205
-17.9455
-10.0898
-4.58533
3.45459
-4.17497
-27.2664
-13.0648
-6.72815
24.4208
-34.2907
-11.8336
82.0311
-82.4534
-168.211
-85.1118
-13.7008
302.698
-207.208
-105.888
-5.87985
412.455
430.032
434.828
390.515
274.602
415.764
426.446
433.918
377.837
263.321
413.849
422.741
432.624
429.571
332.431
412.023
420.025
428.562
429.91
211.764
411.431
421.097
430.413
452.696
312.419
407.235
422.08
429.897
349.404
296.299
385.453
424.949
426.247
427.578
312.873
303.28
427.138
431.078
-145.213
-51.1846
95.8203
-20.8426
-108.172
-162.066
-27.3519
40.9261
78.4718
-117.615
-14.1114
19.3506
11.5631
-21.3626
-14.9223
-6.03802
9.66312
3.16994
-9.27122
-6.68757
-4.03214
4.35972
-5.26178
-4.03481
-2.44559
-7.77055
-10.7959
-8.31725
-4.57815
-2.15352
-8.58944
-19.3871
-12.8493
-4.37914
5.21635
-13.1728
-36.3742
-24.5802
-7.95956
28.4567
-30.9467
-63.4192
-46.1929
-10.9621
94.8914
-78.7733
-167.749
-101.867
-26.7592
379.127
435.635
436.549
436.924
-13.9123
415.783
428.884
433.685
386.803
260.585
415.663
424.565
432.373
457.489
172.885
413.356
419.722
423.756
293.82
233.891
407.291
415.846
412.624
334.365
256.817
409.211
416.882
418.728
289.971
225.614
410.121
420.512
428.975
438.407
172.888
397.663
421.646
426.543
411.046
256.458
347.615
429.302
431.911
384.646
313.123
131.303
-50.1966
-103.682
-159.006
-56.6378
31.6094
3.09138
-50.2546
-45.3141
-15.3186
17.1672
2.62134
-14.8852
-18.4168
-8.04315
10.1696
4.67319
-6.75526
-10.0557
-5.04126
2.5813
4.06274
-2.44733
-4.6032
-3.40285
-14.3991
-7.55274
-10.5201
-8.34521
-4.35948
-1.82567
-8.4802
-18.9742
-12.9032
-4.49178
5.6932
-13.2486
-36.3822
-25.0051
-8.31358
29.5296
-35.7855
-74.6458
-52.787
-11.0088
115.723
-71.8643
-163.745
-116.772
-24.8194
384.583
436.516
436.194
419.447
416.38
429.651
434.623
440.386
338.351
416.391
424.824
440.766
447.531
200.144
411.071
419.77
417.404
329.757
276.675
406.628
415.288
403.207
336.549
264.696
405.332
416.505
411.321
331.954
260.39
411.174
420.847
426.895
453.43
206.786
400.659
422.243
427.501
440.207
261.054
352.689
428.627
430.633
414.179
316.326
140.427
-56.8794
-114.287
-154.601
-48.675
28.2725
-4.30734
-45.7137
-47.1964
-15.8448
17.539
3.05972
-17.3404
-19.9679
-8.63267
10.0016
4.62136
-7.08025
-10.8985
-5.21579
2.3131
3.79315
-2.79449
-5.14529
-3.70389
-7.39277
-10.2944
-7.72534
-4.50236
-3.58929
-7.3105
-15.2107
-11.2643
-4.31251
5.1892
-6.91935
-26.2381
-21.0428
-7.66748
32.2596
-14.2981
-58.8039
-53.5126
-11.8706
123.679
-57.3157
-156.038
-154.371
-24.2706
373.887
435.696
436.679
412.752
-15.9842
414.404
430.531
434.424
425.829
277.684
417.54
427.155
437.376
437.674
201.81
415.374
421.956
426.27
322.637
232.026
411.848
418.44
416.563
330.444
269.701
413.268
419.498
423.041
329.208
260.458
410.541
423.556
431.976
438.361
143.035
397.099
425.241
428.645
350.613
264.326
336.005
432.337
432.409
420.951
318.053
107.676
-53.0039
-109.872
-156.593
-20.8819
36.9242
4.18071
-52.8294
-65.9409
-12.5031
17.2782
6.09773
-16.8088
-19.8475
-5.96889
7.62533
2.99912
-7.69727
-8.97208
-4.9271
1.17951
3.16655
-3.07066
-5.27443
-3.58487
-1.66489
-7.41147
-16.8191
-7.92799
-3.67549
6.50014
-5.24695
-26.3976
-7.39552
-6.41013
25.1162
-18.0431
-9.39551
72.9926
-49.878
-142.946
-145.54
-18.4974
285.737
-145.682
-145.275
-19.1762
395.849
432.153
435.12
436.634
292.149
414.432
428.763
434.365
431.764
226.17
416.667
427.203
432.078
448.482
322.536
416.368
430.487
437.418
439.535
228.383
412.6
425.386
432.041
428.855
258.937
406.059
425.404
429.775
372.885
258.966
382.496
429.891
429.467
371.577
299.339
288.084
430.485
432.746
-154.133
-22.4172
62.1023
-51.3678
-135.166
-184.757
-14.3893
24.2471
-0.994834
-67.7897
-9.37098
11.6416
13.2066
-25.4126
-19.1217
-5.46106
5.40002
5.90204
-12.0022
-9.92215
-4.19383
2.30436
-6.60758
-5.62451
-3.32597
-4.99246
-9.59343
-19.1257
-8.18281
-3.4704
-0.554495
-10.4039
-19.9075
-13.8091
-5.67964
7.34018
-12.7915
-35.9086
-29.6587
-8.25207
32.8442
-38.9778
-91.6169
-68.6584
-12.2292
125.525
-73.8268
-146.011
-154.141
-25.768
331.11
437.656
438.146
-24.5872
391.776
432.528
434.296
428.487
263.849
403.97
428.52
432.742
445.574
252.127
405.817
427.99
436.821
357.096
168.816
400.491
427.569
431.315
439.932
262.757
382.333
431.235
430.068
401.77
288.965
334.685
432.955
433.504
339.297
-11.5422
89.0362
-107.295
-194.499
-154.633
-15.0045
7.96616
-17.7168
-50.5652
-37.7379
-11.7619
2.32357
-9.16935
-35.0706
-27.9293
-7.34951
1.03579
-10.7515
-20.6335
-13.0129
-5.45527
-0.797103
-7.83761
-19.4714
-7.35754
-3.453
-13.0302
-8.87327
-12.1469
-8.23455
-4.23193
-5.19594
-9.3434
-13.9185
-10.9771
-4.93245
0.70462
-8.84075
-23.58
-16.841
-5.7541
14.7433
-12.1792
-39.306
-38.5657
-10.4576
49.1887
-40.0885
-115.062
-100.058
-15.3766
119.904
-74.5426
-130.136
-167.481
-36.9443
281.036
434.134
-131.494
-132.409
-27.4018
352.049
433.857
436.207
392.274
359.945
434.159
436.799
401.04
318.067
348.811
433.515
435.005
421.028
279.533
433.495
-139.84
-20.6068
92.558
-186.653
-15.013
31.2053
-37.6921
-92.0823
-68.561
-11.3535
1.86659
-10.8928
-30.081
-20.3899
-6.47729
-3.25641
-10.7273
-18.5891
-12.8664
-4.9385
-4.92202
-9.15186
-14.6447
-11.035
-4.88125
-8.23813
-8.325
-12.4775
-8.5278
-4.15236
-9.17274
-8.46606
-11.2501
-8.7413
-3.86945
-3.79978
-8.22375
-15.8507
-10.9597
-4.37309
3.56187
-8.47552
-24.5986
-19.76
-6.55398
20.4285
-2.89081
-48.0472
-29.2137
-9.59675
35.6149
-25.8887
-92.0457
-68.1344
-12.4684
51.7206
-68.6794
-151.658
-96.235
-13.7062
73.7888
-120.496
-164.556
-98.8844
-22.0864
81.2538
-125.163
-140.175
-17.6576
71.6028
-110.245
-178.338
-108.134
-8.47083
45.6102
-65.1547
-141.804
-98.9763
-12.1714
27.328
-17.9484
-87.8499
-75.4092
-9.98364
11.4735
-11.3608
-55.2476
-27.9757
-6.82192
-0.130509
-9.81013
-24.6679
-18.3896
-5.14106
-5.05788
-9.78293
-16.0928
-12.3192
-5.30859
-8.30753
-8.9234
-12.6026
-10.3039
-4.97797
-6.70038
-8.80564
-13.6324
-8.91532
-3.98856
-0.333731
-7.08276
-20.7324
-11.5276
-4.70393
3.3885
-7.40932
-28.2009
-11.597
-5.79956
3.39516
-9.83993
-27.3876
-21.2293
-7.61675
4.83737
-13.9409
-38.3014
-26.5709
-8.60143
18.9279
-18.8668
-50.8487
-40.8829
-9.37994
25.2655
-26.6754
-48.3638
-9.17961
5.92981
-22.4958
-53.6602
-26.7506
-8.15767
2.25309
-11.9549
-30.6137
-23.0171
-8.15871
3.98963
-10.3685
-29.1093
-24.9522
-6.1777
0.8771
-5.50078
-29.9458
-16.8477
-4.51471
-3.50242
-8.22787
-22.0645
-11.2561
-4.13759
-8.10239
-9.3932
-14.0913
-9.85452
-4.81037
-8.88121
-11.3209
-8.60557
-4.8939
-4.57293
-2.28469
-3.18824
-4.70886
-8.79536
-15.1735
-9.93088
-4.70209
-2.03211
-7.82766
-17.0627
-13.6718
-5.82518
-2.21428
-9.00799
-20.5679
-13.385
-4.4573
1.57355
-8.94711
-24.0109
-18.0495
-4.70284
5.30001
-11.1051
-20.5125
-4.46252
-2.2307
-13.4092
-25.6893
-12.2809
-4.51963
-1.43932
-9.97048
-17.8947
-12.2941
-4.57074
-4.86555
-10.3254
-17.4289
-13.0445
-5.45809
-6.50491
-10.1891
-16.406
-10.4479
-4.51158
-5.61613
-2.3097
-23.4009
-12.6953
-3.48772
-15.3542
-7.08487
-3.98479
-12.1493
-8.22098
-11.5962
-7.74081
-4.01805
-8.44565
-8.24556
-11.2634
-9.40804
-4.69275
-6.58392
-8.02955
-13.7407
-10.5628
-4.66966
-4.85135
-8.78001
-15.9369
-10.4411
-4.53632
-1.66457
-10.6367
-11.7781
-4.58436
-5.6649
-11.7697
-16.6116
-10.4868
-4.58922
-8.60332
-10.7242
-13.6065
-10.629
-4.63565
-9.99427
-10.0401
-13.0079
-10.4192
-5.06923
-12.1465
-9.65534
-12.7536
-8.87674
-4.41998
-13.4219
-7.94518
-12.6673
-8.7791
-4.28118
-10.7412
-10.6563
-6.03804
-3.32003
-13.9148
-10.0655
-15.0114
-9.09843
-4.26658
-8.77355
-4.71545
-11.4821
-12.0258
-9.44586
-8.36292
-5.02526
-4.13647
-0.226479
-8.8542
-0.870934
-12.1444
-11.8223
-20.0207
-12.5391
-9.56923
-20.4764
-10.4509
-8.23691
-4.96197
-10.6353
-3.31278
-4.13582
-0.317615
-2.95684
-0.387085
-8.42606
9.41581
-3.17468
-6.92096
-4.35061
-11.4826
-11.8966
-8.29652
-22.1931
-2.99453
-6.70992
-4.08849
-2.6873
-0.313333
-3.44866
-0.305084
-3.91169
-4.77139
-10.7554
-11.2582
-8.25631
-6.7639
-4.24265
-3.57286
-0.347841
-8.27114
-8.5048
-11.3678
-11.6836
-9.21269
-8.08137
-4.84069
-4.01492
-0.262357
-14.5679
-8.3583
-9.91827
-8.12068
-8.52539
-11.1673
-8.4316
-10.1529
-11.4539
-9.2033
-11.0538
-9.9212
-8.09616
-4.95755
-8.80965
-5.81515
-4.14059
-0.25238
-4.38518
-0.682915
-9.13759
-7.89288
-7.05525
-7.32921
-8.22247
-10.1315
-8.02532
-10.9125
-11.0187
-10.248
-12.3381
-11.1997
-9.19624
-6.18166
-10.2591
-6.72662
-4.6261
-0.756582
-4.98104
-0.903354
-12.1221
-7.17793
-6.70655
-6.85717
-5.48123
-6.01722
-7.50953
-11.3042
-7.9093
-10.3032
-7.86243
-11.5629
-9.97537
-12.1518
-10.2237
-13.1101
-12.1248
-14.7472
-13.5794
-5.77891
-8.12816
-5.35488
-10.0403
-7.43246
-10.7546
-7.71122
-3.97504
-0.579665
-4.3389
-1.67093
-4.44844
-1.73294
-6.87469
-4.73628
-0.635081
-4.08782
-4.79715
-1.1591
0.0237398
-12.4327
-8.59324
-20.3758
-8.17294
-12.5533
-13.4161
-23.6409
-10.5271
-20.7326
-11.7229
-14.4688
-12.643
-24.569
-14.4849
-5.36558
-6.09901
-4.08467
-9.10768
-7.22774
-6.61032
-4.37462
-0.779916
-3.22715
-0.644039
-4.60834
-1.95302
-3.46699
-1.55301
4.46313
-7.84075
-3.05935
1.12367
9.87882
-0.470835
-1.24429
-4.61959
-11.2047
-2.49631
-4.36607
-12.5642
-11.8722
-8.97518
-16.5997
-13.5107
-12.0717
-3.17819
-6.56688
-4.47332
-20.5334
-5.45134
-9.36928
-6.08488
-0.55262
-3.45245
-0.614038
-4.02986
-1.58125
-4.44058
-1.93808
-4.00667
-4.10717
-1.17962
-2.54045
-1.86453
-3.02862
-10.7059
-4.34851
-7.95393
-5.87559
-10.6197
-5.69677
-8.5637
-9.33444
-8.52459
-7.7673
-13.4803
-12.4039
-10.7437
-10.0806
-4.64263
-6.94345
-4.68097
-8.6238
-6.19902
-8.86149
-6.7413
-0.624121
-4.08083
-0.342819
-4.32196
-1.82452
-4.46475
-1.89435
-1.73486
-2.91764
-2.77144
-2.86769
-7.55343
-4.71819
-6.98819
-3.75561
-7.07549
-7.54897
-9.4642
-9.70888
-8.44003
-8.90154
-4.76882
-8.38051
-6.46055
-8.30001
-5.8913
-0.334577
-4.03766
-1.67639
-4.53165
-0.831963
-3.10003
-2.85442
-4.70164
-2.56725
-3.61114
-6.80022
-2.91728
-6.45483
-8.12619
-8.39812
-7.81034
-7.48962
-7.84784
-5.48721
-6.52262
-4.69849
-4.30848
-0.772391
-3.76575
-0.637129
-5.31543
-2.45577
-2.79928
-7.24647
-7.90999
-7.31025
-6.64183
-4.30603
-3.75993
-0.344408
-8.55661
11.7662
-5.24473
-3.6277
-2.98065
-0.541142
-12.8631
-8.20275
-6.86322
-2.70008
-6.62044
-6.43249
-8.45374
-11.863
-10.8695
-9.41916
-14.2047
-12.2835
-10.0507
-13.712
-15.5544
-13.3066
-7.93152
-5.04786
-2.65814
-4.50892
-8.36966
-5.6027
-3.80645
-0.549546
-3.38281
-0.625383
-3.63179
-1.45055
-8.11829
-7.80322
-7.46785
-6.22263
-6.26352
-5.0916
-6.11527
-11.1938
-8.69724
-10.477
-9.0845
-12.9733
-8.84054
-12.406
-10.2157
-12.0573
-11.7299
-14.7119
-13.6075
-14.7536
-14.0066
-5.56538
-9.17581
-7.17521
-9.88409
-7.14462
-11.2314
-8.12736
-0.711309
-4.02251
-1.62229
-4.55823
-1.94941
-4.80763
-1.94903
-13.9481
-13.2974
-24.4469
-8.1112
-16.9238
-6.08108
-33.5752
-15.2324
-25.6609
-15.5751
-20.8589
-19.3818
-34.4908
-23.3746
-4.2714
-13.8679
-7.4363
-2.91918
-18.8146
-17.9445
-14.9618
-13.7552
-26.3094
-21.4066
-20.5107
-1.35752
-2.3944
-2.05989
3.24203
0.81278
2.20234
0.974194
-1.85471
2.08172
1.13473
3.85242
4.32948
-7.25232
-3.85173
-9.49208
-1.04651
-15.9279
-7.96946
-11.8985
-10.8165
-15.9408
-9.14995
-4.56005
-7.71857
-5.37408
-4.48586
-4.49844
-0.716101
-3.74414
-1.68003
-3.04474
-0.663194
4.04375
7.3949
1.01168
-17.7415
3.30086
-7.81684
-18.0021
-9.3873
-8.95468
-5.90264
-7.20554
-2.03745
-4.17684
-2.04561
-1.91964
-0.50365
-1.82435
-0.248589
-12.445
-10.7785
-11.3763
-13.4476
-13.9936
-11.0612
-9.22924
-5.54552
-4.21365
-0.702315
-6.9547
-2.17929
-10.7859
-10.1469
-6.73165
-7.45467
18.9205
-11.6672
-14.2224
-11.2747
-19.5606
-37.0175
-15.0365
-12.8854
-19.8984
-13.6791
-1.12002
-4.29454
-8.60392
-6.04332
-8.33938
-6.07264
-3.23794
-0.584086
-3.6903
-1.47299
-3.88918
-1.62407
-8.21126
-17.4857
-10.5078
-22.7756
-4.40785
-29.6164
-18.1426
-14.2899
-22.7898
-13.7004
-28.1922
-20.3065
-22.0068
-6.25653
-36.1019
-13.9281
-33.594
-9.01511
-67.0334
-26.6212
-36.8869
-26.2451
-41.2342
-40.8363
-61.7497
-51.6388
-3.11748
-22.1407
-1.6604
-2.85506
-40.2199
-29.4423
-25.1811
-25.5992
-56.7212
-46.4516
-45.765
-12.7513
-0.181954
-16.9825
2.12704
-20.9938
8.70252
-15.0004
-13.0452
-17.1684
-9.30915
-23.6172
-20.8392
-16.5153
-13.6743
9.34555
-0.79611
4.38438
8.61033
9.49087
5.94908
5.69363
3.13977
-6.61331
5.93222
-10.2977
2.2486
-3.8406
-9.92715
-8.67253
-6.58562
-13.9082
-12.4636
-8.09884
-8.23118
-2.93207
-3.84977
-2.64687
-8.60638
-5.09887
-5.92901
-4.63181
-1.05109
-2.05179
-0.547792
-3.6673
-1.5948
-3.45051
-1.62291
4.11479
4.47946
4.13421
3.37205
-5.8725
2.7588
-3.2601
2.99007
-1.2839
-5.56019
-5.41045
-6.23865
-2.30614
-4.20862
-2.647
-5.6882
-3.91934
-3.73126
-3.517
-0.399933
-3.32241
-0.717337
-2.8818
-0.408147
-14.8787
-11.6911
-11.4902
-12.4891
-12.8481
-10.766
-9.31247
-5.98836
-4.49491
-0.617936
-11.4994
-10.7624
-13.0699
-11.4945
-10.0219
-10.4324
-11.6737
-12.8568
-11.6528
-12.8687
-11.9752
-13.9727
-13.8155
-12.3912
-13.1309
-11.2902
-15.0179
-13.6101
-9.44792
-7.03161
-9.72015
-6.26701
-10.4522
-7.57181
-4.105
-1.62102
-4.56817
-0.713489
-4.26722
-1.64864
-23.3742
-7.05083
-33.9673
-12.8094
-23.3299
-9.76293
-39.1919
-17.349
-30.3033
-26.66
-27.0918
-24.3784
-41.6378
-32.8858
-30.5414
-11.3389
-27.8028
-6.36643
-48.9795
-9.26631
-52.7575
-21.3969
-30.2194
-30.3985
-49.2752
-35.885
-61.7186
-58.6986
-57.0298
-7.14109
-78.4496
-101.948
-146.743
-76.1582
-171.455
-68.4173
-72.1188
-65.8227
-154.691
-129.843
-177.491
-141.997
-8.77045
-53.2831
-45.5132
-79.4577
-150.967
-71.5404
-62.449
-64.4575
-135.852
-168.413
-156.132
-20.8742
2.09838
-23.5568
-1.6187
-60.9827
50.8397
-39.0506
-27.84
-28.2963
-74.9012
-122.478
-76.56
-25.31
7.64006
-13.8732
21.3174
-47.1391
8.12604
-12.9482
-21.7267
-17.53
-16.2028
-43.3314
-56.157
-17.9368
-23.4294
5.42375
-1.63313
3.7589
8.21077
6.52279
5.5087
5.19272
-1.32077
2.92767
-0.623353
3.5149
-1.67189
3.56761
0.343108
-6.68888
-2.64858
-4.48113
-6.75942
-8.55461
-4.20826
-5.91548
-4.96063
-3.95093
-3.76916
-8.73074
-6.54874
-6.60683
-5.65856
-1.68896
-2.93787
-0.663647
-4.663
-2.08494
-3.78321
-1.72688
3.46423
4.06855
4.28976
-0.961509
3.61537
-0.612528
-4.05335
-3.04772
-4.98246
-3.56307
-5.41634
-4.0212
-0.440512
-3.35372
-0.737725
-12.0316
-14.0352
-14.0967
-10.0101
-9.47681
-5.09303
-4.68258
-0.0869205
-13.5426
-11.5933
-17.1741
-11.5742
-10.2445
-11.0794
-11.6831
-12.8353
-11.7519
-13.8779
-12.1821
-13.6922
-13.1829
-11.3065
-13.9364
-10.1129
-14.4552
-12.9994
-9.75745
-6.28501
-9.27366
-5.17852
-9.81715
-6.97294
-4.66769
-0.728148
-4.53333
-0.184892
-3.96749
-1.48267
-54.6138
-12.7239
-70.8775
-42.935
-97.0023
-76.8849
-133.371
-46.8643
-76.6706
-97.359
-115.603
-109.979
-143.982
-197.797
-79.9601
-91.2306
-103.61
9.97278
-109.035
-125.057
-116.483
-135.09
-165.834
-184.859
-127.966
-137.082
-120.645
-92.8742
-154.495
-129.813
432.874
435.138
-176.192
-174.462
-160.929
-133.057
-140.399
434.394
-57.0163
-119.488
-52.2611
-117.326
-37.5101
-28.5015
-3.60138
-20.5222
-5.70336
-17.6547
-2.52304
-16.2563
-1.07138
-102.106
143.735
-159.299
333.869
428.584
345.979
424.313
-163.378
-120.266
-175.023
434.167
435.194
431.533
434.235
-157.203
-182.566
-145.273
434.442
386.223
433.834
363.226
-50.6864
-128.287
-43.5104
416.477
-25.8632
440.657
-5.97657
-21.647
-4.06058
-18.1776
-0.806255
0.770704
-108.181
126.468
-122.454
346.108
424.495
338.668
422.77
-115.565
-151.242
431.271
433.588
430.889
433.366
-140.871
-171.497
-176.149
433.322
399.258
432.83
358.38
-46.7445
-149.049
-72.5102
426.127
404.118
-41.5237
-4.57578
-30.5328
-6.19301
2.40527
-26.251
-0.862676
-147.934
-69.8449
-115.696
430.948
433.49
429.234
-180.231
-137.266
-172.136
432.959
383.76
-149.996
-83.5773
-156.845
-95.9226
415.015
-46.01
-144.881
-72.7845
-7.04784
-45.5517
-8.55413
-28.9034
-1.61321
-36.7072
-0.939763
-87.8251
-59.0019
-93.7457
-114.444
-87.7286
-106.947
-167.75
-112.482
-154.839
-120.305
-147.78
-105.653
-126.232
36.3157
51.0456
40.2946
105.213
25.9228
73.9852
33.0889
-74.0918
25.5288
-61.4132
-7.33232
-69.1386
-140.089
-55.7707
-85.3445
-91.1264
-131.706
-127.83
-87.6155
-78.0299
-107.861
-143.086
-146.519
-135.469
-32.7337
6.22737
-12.7239
-5.68299
-44.1481
0.6103
-23.715
-63.4783
-25.2459
-35.5565
-75.6892
-113.513
-43.6786
-58.9039
4.70637
7.82711
6.18812
4.45797
4.73433
0.758897
3.78546
-0.479841
3.59107
-1.33313
-5.25593
-5.09229
-6.58922
-3.26265
-4.72847
-4.82977
-6.89206
-5.51147
-4.29872
-3.49012
-1.60552
-3.82655
-1.71385
-2.80865
-0.639035
3.2004
4.34327
3.73909
-1.9269
-3.01051
-4.25564
-3.53709
-3.05607
-2.75431
-0.300741
-17.765
-12.1586
-9.78256
-7.93379
-12.3228
-14.4613
-12.9055
-19.4568
-14.4585
-9.85111
-19.087
-11.1756
-8.9856
-4.81804
-6.96635
-4.59155
-5.21304
-0.0882353
-3.55839
-0.571729
-11.2175
-9.18077
-10.1286
-8.48459
-9.19965
-6.7885
-8.91689
-14.6548
-12.8548
-15.4419
-13.5901
-18.2946
-13.7439
-18.101
-11.3402
-16.523
-14.6306
-17.7685
-14.0602
-18.9881
-16.2737
-5.62245
-10.7802
-7.67828
-7.71782
-5.89887
-10.2689
-7.19577
-0.559775
-4.37025
-1.69444
-3.59514
-1.43234
-4.38105
-1.7688
-151.707
-109.282
-132.799
-100.399
-204.352
437.359
-171.34
-161.123
-201.448
-227.936
-180.385
-161.072
-132.569
-127.944
436.997
437.413
430.92
435.042
-179.8
-129.198
-128.004
437.192
-151.152
433.3
374.027
-47.5526
-115.526
-34.9605
-118.458
-24.4569
421.815
317.204
-3.01756
-14.0124
0.527942
-8.75821
-0.128742
314.599
432.344
435.43
431.469
433.93
428.768
432.116
-130.885
434.518
459.073
432.097
404.114
431.305
413.886
-30.3937
423.346
405.236
314.734
417.59
345.286
1.20071
-14.6217
0.452602
316.396
19.0439
274.884
8.23563
434.623
430.485
432.331
426.046
430.841
425.189
429.479
400.926
433.823
341.717
430.974
411.297
430.162
440.094
449.496
348.9
437.517
311.196
442.318
247.027
0.343343
326.752
1.54622
244.174
2.34471
304.348
1.15993
431.538
429.799
433.171
424.422
428.891
423.927
428.647
401.674
432.27
390.464
430.15
432.308
428.305
472.899
320.596
410.289
323.279
423.37
298.676
370.208
292.259
1.84732
1.53683
296.993
293.343
6.37583
433.102
429.232
433.003
424.929
429.32
427.111
430.489
372.259
432.357
-150.134
428.78
413.625
428.281
375.586
-141.539
-58.9481
351.351
225.032
409.384
277.841
1.23609
-39.8823
0.723751
238.27
5.76403
311.624
-8.20043
432.801
-93.3813
424.937
430.873
430.468
431.994
-149.251
-112.904
430.313
547.55
431.172
409.261
-64.019
-92.3892
-99.319
402.301
319.695
394.139
-69.8282
0.39036
-68.2691
-5.30603
301.414
-14.44
-47.9521
0.645119
-75.195
-73.7782
428.022
432.195
-62.545
-88.9127
-95.7712
-129.72
431.694
408.737
-96.6937
-140.464
-126.553
-151.961
-136.057
-78.5561
-146.372
-127.03
4.84742
8.34598
7.37799
-2.24398
3.60416
-7.97196
-4.73397
-9.34939
-6.37738
-3.07358
-3.60214
-2.58925
-0.599266
-2.54931
-0.619269
-7.79378
-7.05669
-5.77702
-4.13096
-12.3247
-21.8071
-6.20393
-17.5197
-20.9157
-8.93597
-18.1259
-13.7563
-3.841
-4.32995
-9.49632
-5.0954
-3.28333
-0.599176
-3.96866
-0.734881
-5.98601
-3.87138
-7.38546
-3.23705
-3.01772
-0.650417
-0.128471
-21.878
-12.6128
-23.9472
-5.87747
-18.061
-6.18938
-26.5476
-11.0635
-23.6363
-17.2827
-18.8548
-15.2176
-27.9727
-13.0708
-5.42444
-13.1347
-6.45518
-11.7608
-5.81732
-6.58365
-8.18931
-25.0974
-15.9423
-32.75
-7.39893
-28.7937
-20.4977
-20.0346
-35.6203
-30.6164
-29.8588
-14.201
-40.816
-37.1516
-31.6006
-56.1884
-21.0152
-63.6968
-42.4102
-123.479
-41.8296
-67.5621
-60.275
-59.5563
-48.9606
-133.488
-90.4245
-127.356
-132.382
-189.859
-74.2917
-162.498
-139.738
-200.054
-103.306
-215.095
-166.985
-180.885
-156.555
-220.194
-150.539
-211.5
437.052
437.719
-206.011
432.326
436.507
-157.59
437.333
-147.571
-212.888
-134.975
435.837
457.361
-33.0073
-115.099
-22.5511
-92.8895
-19.9592
404.886
293.457
-3.10035
-6.9844
0.0400974
-11.5537
1.33955
305.51
-3.36263
434.399
415.821
435.189
369.781
434.841
385.925
-19.5026
431.471
314.725
351.852
273.669
379.802
153.957
0.455398
304.538
302.681
-5.55392
285.638
-0.16499
421.034
431.537
360.148
434.861
410.466
432.182
449.857
310.031
416.127
299.572
418.539
272.719
437.467
256.508
1.62078
334.239
7.46982
292.176
-1.46501
249.446
-78.8885
412.6
430.213
438.19
430.853
556.015
429.707
618.804
318.304
441.255
222.763
421.797
259.371
431.82
274.366
-0.362993
303.825
4.25951
144.833
269.003
-37.9387
428.415
428.378
415.079
430.739
465.361
430.235
425.977
273.929
364.091
305.24
426.845
0.522833
435.919
194.517
267.533
1.38104
193.923
-78.1858
375.277
429.124
440.706
429.879
441.643
429.833
422.705
274.966
422.001
297.757
449.971
228.899
383.291
228.668
5.42447
334.766
-2.78597
161.317
264.828
-0.812323
410.468
431.061
407.003
429.368
208.58
427.538
407.288
290.669
415.94
398.602
144.991
428.865
285.647
-26.5612
0.761053
273.012
0.760344
256.599
-3.13039
432.204
-56.2587
-89.1207
428.75
428.257
427.941
431.711
418.468
-98.9151
-139.301
427.979
407.645
430.826
-71.3197
-142.788
-107.572
429.485
284.82
-142.477
-81.2199
-1.20136
-74.3182
-5.74264
313.915
-5.32297
-58.3529
-3.76614
-90.9176
-50.9154
-87.6423
426.787
-39.4337
-92.0625
-145.649
-104.98
-142.056
-142.327
-108.056
-146.95
-121.551
-158.662
-120.745
-145.315
-98.4834
-174.813
-139.389
-46.0077
-0.684488
-22.6433
-25.3173
-91.3873
16.7542
-51.2489
-112.359
-40.1529
-54.1729
-95.7784
-149.756
-52.3294
-69.6224
-13.8219
5.61016
-12.3249
23.607
-44.1798
15.5138
-31.0005
-15.8799
-17.841
-45.9325
-49.6384
-29.3009
-11.685
7.0727
-9.73811
9.55774
-26.9979
9.40645
-11.9633
-15.2028
-10.8144
-8.37253
-24.9151
-23.9386
-15.0793
-12.2041
9.82812
10.6047
10.7784
2.75785
6.57015
-11.0984
7.63851
-8.70404
5.05275
-5.33515
-7.42042
-11.4346
-10.6702
-7.40379
-6.30503
-2.18705
-7.80075
-2.69053
-3.76902
-2.37667
-1.25165
-2.75758
-1.29225
-1.95569
-0.460157
6.27432
4.87598
-4.85516
-6.07901
-5.43819
-3.98828
-2.38558
-2.05802
-0.263184
-6.1016
-6.00488
-7.75752
-6.99367
-6.90608
-9.16783
-13.0047
-7.74954
-10.5182
-8.47548
-11.3972
-14.7133
-12.847
-11.0227
-9.1171
-13.7001
-12.5828
-8.34481
-5.80646
-8.23839
-5.19646
-9.40671
-6.80426
-3.77144
-1.58346
-4.5179
-0.11743
-4.28943
-1.76302
-17.2812
-6.12259
-21.8416
-7.74415
-12.6
-8.26382
-15.3048
-15.8554
-22.9479
-17.0037
-15.9459
-15.3801
-19.9241
-18.454
-25.4288
-7.37048
-19.9802
-11.6587
-29.1645
-18.2676
-26.0611
-25.146
-36.5778
-33.2147
-42.3983
-143.427
-15.0062
-50.2141
-57.6195
-142.722
-147.373
-92.2434
-54.6326
-53.2842
-150.352
-132.733
-36.478
231.427
-138.753
109.633
-60.1359
310.17
431.092
-162.798
-140.41
-197.694
-86.9295
-161.559
435.269
437.958
-137.822
-205.451
-144.577
-162.227
-151.857
437.504
-39.0362
-100.675
-23.6276
-132.427
-56.6521
-30.5567
-3.74173
-13.5163
-1.11013
-17.1085
-3.52459
-14.524
-0.22221
-200.946
433.94
435.561
435.256
437.421
432.055
434.76
-130.613
435.271
401.428
436.663
419.686
433.991
419.353
-17.313
404.416
290.914
428.603
-19.0797
425.692
216.893
1.3131
293.759
3.1816
-12.4406
0.5298
271.454
1.55885
556.201
433.491
425.621
433.96
356.723
433.39
361.13
268.278
413.554
251.959
414.801
278.169
442.435
34.7784
3.94059
317.648
309.715
4.71644
227.243
-112.969
383.218
435.096
416.257
433.554
438.077
427.692
489.588
201.689
437.164
262.018
436.239
140.641
403.333
164.542
0.323967
353.435
-34.3894
207.043
326.314
580.821
428.731
592.273
425.095
436.003
419.177
371.368
218.385
430.228
209.033
343.841
160.731
326.271
270.862
-44.511
233.558
-29.56
226.296
271.959
517.803
415.071
411.25
414.719
409.122
413.411
410.267
412.55
427
420.084
427.439
416.936
419.345
417.401
420.147
470.133
429.256
489.326
418.405
371.808
419.488
349.719
171.483
450.874
67.1495
329.368
268.678
275.694
245.63
165.445
267.736
478.088
240.47
742.198
452.288
431.28
208.437
422.81
392.744
427.12
426.96
207.199
393.462
191.5
266.261
179.633
439.332
232.635
375.646
-0.488025
210.529
702.137
257.735
388.673
426.754
408.25
428.643
543.882
427.109
400.92
179.935
425.966
326.202
437.248
228.141
424.626
208.757
-27.0847
284.498
-1.11135
310.503
233.761
-3.80065
428.219
430.036
431.663
423.398
427.107
429.251
430.466
437.811
430.795
426.686
442.316
429.664
356.649
302.448
-77.1035
422.672
234.085
342.37
297.088
-8.25489
-54.9759
-0.939296
260.047
-26.2887
298.708
1.7357
417.922
177.815
11.6779
332.233
418.213
191.693
-59.1919
431.973
-56.8728
-95.162
431.205
432.242
-67.7132
-77.4829
-144.784
-109.885
-146.388
431.019
323.88
-81.779
-133.271
-92.477
-158.581
-132.978
387.671
301.369
-146.577
-99.317
-2.23395
-58.7115
-13.4897
1.07705
-53.9891
-10.6878
-105.362
37.2697
-45.2295
-77.1259
12.2455
-59.7561
-146.632
-86.5524
-91.2771
-151.138
-76.0002
-125.535
13.7409
-25.2124
15.099
-37.3509
7.12556
-12.5475
-25.6175
-26.9156
-51.4696
-75.4189
-25.0288
-30.9782
-15.9353
6.22173
-9.50268
6.45695
-5.90828
5.29544
-3.73791
-20.5864
-12.2255
-12.3275
-16.0229
-18.9415
-10.8778
-13.6166
8.56668
2.83902
6.17047
9.51645
7.93436
4.74785
5.08479
-4.46248
3.97061
-4.19928
4.0059
-2.23495
3.82205
-1.26997
-9.36735
-6.1984
-6.10541
-7.1891
-8.7538
-3.41077
-5.47642
-5.01485
-4.4945
-3.20339
-8.11744
-6.22727
-5.10023
-4.02835
-1.90524
-2.5407
-0.601863
-4.50307
-1.96532
-3.1923
-0.705603
5.62116
1.85278
4.67878
-4.06249
4.06022
-1.54849
-5.0812
-2.66623
-4.77758
-2.85638
-4.5975
-3.82379
-0.401922
-3.35913
-0.495433
-9.63136
-10.3811
-8.85266
-8.15902
-5.42985
-4.53853
-0.227283
-7.758
-6.3738
-6.68988
-14.394
-7.64426
-6.02822
-6.48637
-10.2501
-7.71361
-10.5511
-7.58165
-9.70297
-7.44858
-10.1832
-9.18258
-13.5924
-12.6012
-10.6497
-9.67772
-13.423
-12.6
-5.31357
-10.3127
-7.67015
-8.40421
-5.88153
-10.5655
-7.92894
-0.170547
-4.61866
-1.8543
-4.33164
-0.651175
-4.70052
-1.87293
-161.201
435.891
437.778
-72.1998
-147.313
437.168
437.443
-144.611
437.351
-164.12
-141.476
436.906
428.861
-56.9307
-32.0433
-114.855
-59.0012
433.345
-30.4851
-3.98076
-18.1286