/*--------------------------------*- C++ -*----------------------------------*\
| =========                 |                                                 |
| \\      /  F ield         | OpenFOAM: The Open Source CFD Toolbox           |
|  \\    /   O peration     | Version:  4.0                                   |
|   \\  /    A nd           | Web:      www.OpenFOAM.org                      |
|    \\/     M anipulation  |                                                 |
\*---------------------------------------------------------------------------*/
FoamFile
{
    version     2.0;
    format      ascii;
    class       volScalarField;
    location    "7";
    object      p;
}
// * * * * * * * * * * * * * * * * * * * * * * * * * * * * * * * * * * * * * //

dimensions      [0 2 -2 0 0 0 0];

internalField   nonuniform List<scalar> 
146404
(
-69.5487
-23.7708
-160.66
-149.659
-126.169
-71.8165
-25.079
-163.648
-173.196
-76.4012
-24.076
-171.616
-165.087
-128.003
-66.4922
-22.4968
-126.871
-67.696
-26.793
-155.44
-152.158
-119.271
-68.0222
-26.0764
-150.089
-153.05
-116.583
-59.3155
-24.2031
-138.007
-144.822
-117.549
-63.6565
-18.0209
-145.583
-159.252
-126.524
-66.3411
-16.344
-152.135
-166.932
-76.7532
-15.599
-159.655
-175.34
-135.169
-57.8218
-15.1214
-162.327
-174.37
-129.609
-60.0196
-18.3801
-166.816
-169.223
-121.392
-71.48
-15.3029
-171.225
-164.503
-123.789
-73.5335
-19.8574
-150.615
-66.931
-19.5706
-148.255
-158.313
-126.571
-73.5331
-15.7054
-138.246
-149.472
-123.239
-66.0534
-18.8701
-134.608
-153.921
-132.437
-73.5107
-20.5151
-134.756
-160.488
-136.892
-75.4953
-18.6009
-135.464
-179.671
-82.6147
-18.1289
-149.366
-172.968
-155.789
-68.1435
-19.1882
-142.895
-162.523
-139.998
-77.1871
-21.6041
-153.149
-164.881
-133.79
-76.3577
-16.967
-157.424
-166.103
-129.188
-73.8238
-21.7085
-157.512
-158.024
-80.8459
-19.7671
-155.982
-124.012
-70.8716
-25.2822
-152.789
-156.64
-109.879
-49.622
-13.7879
-147.19
-157.065
-124.737
-62.9664
-16.0088
-134.811
-145.241
-147.082
-71.9988
-17.2647
-128.701
-157.463
-139.741
-79.9448
-19.3718
-117.96
-166.166
-145.154
-74.9274
-22.4337
-118.6
-180.296
-153.233
-82.1824
-17.7189
-118.418
-174.254
-86.3453
-17.6219
-137.918
-183.157
-169.062
-86.5571
-18.63
-136.648
-180.698
-160.373
-88.6035
-20.0542
-135.017
-170.904
-150.849
-87.4029
-19.0419
-140.019
-152.141
-151.69
-82.538
-17.571
-148.902
-158.07
-125.092
-66.7458
-14.8315
-151.226
-153.564
-111.031
-63.7064
-15.3954
-148.137
-111.769
-64.1608
-21.6551
-149.251
-151.291
-111.988
-51.2468
-19.0076
-134.179
-136.949
-120.633
-64.9524
-17.4196
-136.031
-152.251
-128.774
-68.7951
-18.2393
-116.819
-154.757
-143.452
-74.5384
-16.6142
-112.089
-174.562
-161.945
-86.0623
-22.7167
-131.435
-253.906
-163.966
-84.67
-21.0582
-103.595
-305.388
-173.75
-86.8813
-22.6074
-81.3638
-312.869
-90.9972
-21.5705
-119.353
-330.963
-188.267
-93.9751
-25.2656
-135.61
-283.79
-175.324
-100.138
-26.0389
-104.61
-183.97
-174.071
-96.266
-16.5881
-116.988
-155.663
-152.349
-82.528
-19.4875
-131.601
-138.704
-120.184
-68.9771
-19.1631
-135.658
-131.465
-106.72
-61.3152
-17.0391
-145.088
-137.213
-102.241
-51.2618
-12.4767
-152.785
-150.499
-110.976
-60.167
-24.161
-138.802
-154.095
-125.836
-52.116
-14.011
-128.605
-142.229
-124.84
-67.8249
-19.3866
-118.549
-149.196
-132.683
-65.4515
-20.3745
-119.878
-225.567
-156.717
-74.7494
-21.5148
-92.8686
-289.56
-180.992
-84.2453
-21.0042
183.482
395.509
-88.0125
-25.6155
311.66
395.84
414.459
425.037
319.671
392.449
411.936
440.254
316.918
290.295
387.772
411.053
417.408
168.366
375.281
-99.8822
-26.9639
-40.8956
-92.4981
-21.7674
-95.4094
-188.613
-156.107
-74.3198
-20.2472
-122.876
-139.677
-129.284
-78.2469
-24.1694
-132.11
-145.179
-121.852
-71.0597
-16.448
-137.169
-150.12
-113.884
-60.667
-19.8866
-145.465
-144.298
-109.238
-62.5031
-17.5325
-141.054
-150.147
-127.072
-66.4713
-20.1812
-134.181
-151.709
-132.034
-65.7497
-16.1385
-119.812
-153.647
-134.531
-71.7053
-17.5488
-112.096
-197.49
-151.411
-74.1283
-21.8919
-102.335
-314.7
-162.354
-81.7195
-25.639
293.26
396.242
418.968
-26.3432
365.718
389.128
408.487
415.955
293.035
372.604
386.406
404.99
426.156
308.909
369.917
384.543
405.697
417.53
284.56
357.983
379.443
400.72
399.692
327.449
320.215
377.209
401.415
380.958
280.131
231.58
382.381
405.861
421.068
-31.1976
-71.7587
-353.496
-185.257
-82.8959
-23.203
-98.2009
-175.117
-155.863
-84.8222
-18.2816
-119.256
-152.765
-136.872
-74.0294
-16.218
-132.283
-146.711
-129.593
-71.2882
-13.5899
-138.634
-144.905
-124.541
-65.7563
-13.9592
-138.631
-148.688
-121.461
-71.5857
-15.0646
-125.519
-146.829
-135.209
-69.8794
-17.9234
-98.656
-77.1122
-17.6342
-109.387
-219.336
-171.623
-81.3801
-22.644
176.792
-178.696
-84.2747
-28.6649
367.036
391.46
412.109
388.213
293.291
378.788
390.219
410.858
369.999
304.637
381.223
384.439
407.415
420.932
355.43
382.303
383.149
396.009
421.999
304.166
370.838
378.625
399.792
427.47
384.84
355.237
375.868
399.963
338.061
418.756
312.651
376.428
397.17
418.368
286.612
161.47
373.8
405.901
-91.4641
-27.1413
-85.564
-232.47
-179.539
-86.5706
-16.932
-104.897
-98.0196
-89.4232
-17.7937
-126.859
-139.999
-134.151
-68.1417
-15.6004
-138.116
-143.819
-110.922
-63.1746
-14.9475
-140.932
-110.604
-61.1692
-21.4133
-141.955
-115.002
-68.5821
-25.7562
-130.52
-136.315
-110.805
-61.524
-16.577
-122.949
-144.523
-126.703
-72.3011
-21.9357
-115.283
-165.963
-145.979
-81.4409
-20.9558
-111.184
-282.016
-176.276
-82.9707
-26.1361
309.335
398.711
419.019
450.417
-31.6677
374.341
389.307
407.196
390.012
288.731
382.173
385.977
406.696
446.102
307.279
393.473
387.613
382.231
330.958
288.368
393.177
386.369
398.819
328.769
262.236
382.247
381.499
380.188
307.964
283.447
363.351
374.233
392.677
424.082
262.682
338.896
373.411
395.465
398.413
276.053
240.738
382.694
406.381
373.266
294.275
-83.4595
-302.038
-168.755
-93.1096
-23.6984
-118.408
-154.947
-152.581
-74.1216
-23.019
-120.698
-132.446
-112.841
-68.2463
-21.2132
-130
-140.204
-105.498
-56.8746
-15.3624
-144.382
-136.632
-103.662
-63.8101
-23.3069
-145.087
-140.483
-115.262
-63.338
-23.3976
-131.238
-136.555
-108.989
-63.9229
-18.5702
-123.752
-145.54
-127.267
-70.2967
-20.2107
-119.3
-165.754
-146.776
-80.3483
-19.6821
-103.429
-319.706
-183.566
-92.2517
-26.3047
317.595
399.956
415.699
424.968
373.43
388.47
406.875
419.906
325.525
383.972
385.982
407.787
433.146
291.737
392.6
388.219
397.102
326.762
268.06
377.122
393.532
427.301
337.538
295.605
382.351
380.317
394.573
322.225
261.33
365.253
374.137
386.444
437.296
284.176
344.739
373.044
393.419
423.031
266.202
252.713
379.774
406.005
407.818
276.468
-74.1921
-353.071
-177.098
-91.4267
-23.3077
-114.166
-139.142
-128.522
-82.1436
-26.0954
-114.299
-130.311
-115.401
-66.4158
-18.8
-125.869
-137.177
-106.992
-56.6793
-13.6792
-143.288
-130.083
-100.894
-59.8434
-21.3704
-143.728
-115.158
-69.3394
-26.4017
-138.882
-145.785
-113.511
-66.9775
-15.6362
-129.438
-148.434
-126.507
-72.5105
-17.6124
-104.982
-148.934
-151.263
-81.4254
-18.6551
-114.756
-280.001
-183.603
-86.8726
-23.2629
291.241
395.633
414.392
413.643
-33.8925
364.697
385.043
402.982
413.87
306.441
375.573
384.414
405.37
418.976
277.403
385.138
384.925
382.919
342.425
281.634
387.943
379.176
382.87
330.107
261.863
380.197
374.476
374.156
324.037
296.953
359.916
375.622
397.866
416.918
222.337
336.425
374.452
395.637
349.836
271.281
222.284
382.935
403.719
411.436
300.459
-90.0393
-286.895
-184.192
-90.7818
-16.6552
-105.375
-147.722
-144.452
-82.6537
-18.5241
-119.131
-140.104
-119.303
-69.4783
-15.3476
-132.736
-143.085
-107.627
-58.7737
-12.2369
-144.964
-135.504
-102.603
-60.5148
-23.5142
-144.759
-150.085
-122.669
-69.7177
-18.8236
-130.828
-149.089
-138.373
-66.2044
-16.7032
-108.556
-73.6762
-19.0452
-120.786
-201.618
-174.71
-80.8557
-25.3107
140.493
-186.253
-91.0024
-29.1724
327.633
386.472
405.65
436.783
297.507
362.348
381.555
402.479
413.693
256.538
368.238
378.528
398.961
449.377
394.851
368.549
378.321
402.077
420.541
293.64
361.179
376.905
397.307
416.865
308.829
351.389
374.891
396.922
361.586
296.102
306.354
382.195
396.952
366.396
282.3
141.578
380.723
404.146
-87.2031
-25.1065
-101.787
-213.535
-170.591
-82.3961
-17.9016
-108.731
-133.592
-80.7608
-16.8298
-124.583
-134.812
-139.306
-72.5358
-14.2285
-135.697
-139.544
-116.476
-63.7223
-13.9398
-139.091
-106.36
-61.9664
-22.4968
-152.264
-157.492
-129.613
-65.1368
-19.7083
-144.565
-157.306
-129.153
-69.6735
-15.396
-129.571
-144.25
-128.978
-78.3671
-24.0154
-108.959
-173.132
-147.855
-73.2744
-20.892
-122.526
-299.071
-170.729
-84.2144
-24.0678
213.088
394.451
408.977
-31.2984
318.568
384.522
402.327
420.446
282.377
344.996
379.379
397.234
418.956
260.423
350.236
378.678
402.669
351.642
220.034
339.314
377.213
395.711
408.615
250.428
304.961
382.704
396.416
390.41
267.665
225.563
385.419
404.179
332.252
-30.1777
-127.684
-258.922
-166.308
-84.2126
-17.2447
-119.555
-143.008
-129.67
-75.9507
-23.2755
-127.934
-149.853
-132.935
-74.3836
-16.9628
-129.978
-151.009
-121.241
-67.9969
-17.3475
-137.616
-142.485
-123.522
-61.2057
-16.3638
-157.922
-153.213
-119.051
-64.3538
-24.4401
-150.545
-156.809
-119.8
-73.1005
-14.9348
-139.489
-142.929
-122.976
-75.3255
-22.9427
-128.727
-153.88
-137.371
-79.612
-19.6109
-108.406
-194.084
-152.853
-80.8496
-17.0593
-113.271
-278.814
-192.057
-84.6893
-23.9838
116.023
385.078
-187.016
-96.9109
-31.5614
253.233
388.042
404.661
372.135
261.308
386.853
404.327
375.267
307.724
250.316
388.402
402.852
405.724
116.596
381.98
-90.2337
-27.2633
-115.823
-84.1585
-15.4674
-107.226
-180.469
-155.033
-88.2914
-18.6661
-125.231
-139.3
-121.214
-68.2766
-20.0163
-130.625
-141.181
-116.748
-59.7455
-17.4964
-134.461
-147.274
-111.968
-57.5049
-15.8535
-141.788
-142.647
-112.998
-60.7858
-20.9425
-155.502
-155.201
-113.398
-64.5324
-17.6423
-149.749
-158.553
-124.774
-60.0505
-16.1563
-141.416
-159.201
-135.617
-74.8997
-16.4926
-124.96
-154.336
-151.808
-80.4868
-17.246
-114.911
-180.762
-160.063
-87.6882
-19.1206
-126.532
-223.38
-167.83
-91.821
-19.5316
-142.593
-256.514
-171.484
-96.1824
-24.0385
-127.715
-305.303
-96.24
-27.0264
-154.339
-254.986
-163.379
-84.9479
-18.5276
-128.293
-212.555
-156.652
-90.0488
-18.8463
-118.938
-169.857
-156.898
-83.1979
-17.1641
-126.531
-159.087
-155.894
-75.1206
-16.2097
-133.556
-149.807
-125.464
-71.7899
-14.4396
-136.901
-147.004
-113.032
-61.4666
-16.4015
-138.722
-141.425
-109.622
-60.0526
-16.6218
-152.935
-161.65
-118.808
-60.9526
-15.3846
-146.829
-159.73
-136.535
-72.9467
-19.8269
-141.257
-153.964
-141.927
-78.9943
-16.4847
-132.793
-146.418
-127.713
-72.074
-20.2444
-127.076
-150.638
-132.543
-74.2445
-21.4274
-112.512
-166.347
-150.466
-84.2232
-18.2749
-109.396
-187.07
-90.5633
-17.58
-137.172
-164.427
-156.814
-64.4183
-18.5612
-136.784
-154.465
-129.581
-72.0933
-21.1657
-139.024
-155.391
-129.104
-70.8761
-15.7914
-143.883
-146.042
-135.766
-71.6098
-13.5514
-147.238
-150.195
-129.559
-71.9178
-14.5927
-149.379
-149.095
-112.731
-68.0092
-16.4383
-142.951
-114.925
-68.7147
-23.2636
-152.285
-67.29
-23.7397
-150.441
-156.589
-123.868
-69.9619
-17.0472
-140.615
-151.209
-121.927
-70.9474
-16.4973
-132.368
-141.799
-119.276
-64.3462
-18.7528
-132.713
-156.486
-133.141
-70.7299
-16.399
-132.968
-171.829
-78.8804
-15.3154
-147.659
-161.06
-133.417
-57.1215
-15.2515
-144.055
-155.325
-108.957
-54.0668
-14.5239
-152.443
-158.368
-114.326
-58.7657
-19.2834
-154.598
-155.449
-111.871
-62.7098
-22.0913
-152.441
-143.414
-131.54
-66.7133
-17.5087
-120.641
-67.9671
-23.4877
-158.801
-153.21
-114.484
-72.5737
-23.0764
-151.317
-150.332
-114.271
-65.4234
-22.0255
-142.703
-145.068
-114.521
-56.5207
-17.6879
-144.541
-155.813
-122.773
-61.1648
-24.0688
-144.366
-167.779
-72.8007
-18.5328
-150.64
-158.02
-116.678
-62.287
-18.0086
-157.671
-158.178
-104.657
-53.8943
-14.9091
-160.497
-156.475
-106.125
-57.052
-16.5777
-160.762
-155.755
-114.139
-60.8861
-23.6958
-155.611
-149.191
-118.948
-70.8577
-29.1837
-150.494
-160.343
-69.2613
-26.1936
-160.035
-154.339
-115.42
-64.2018
-26.4716
-62.8674
-28.9625
-127.443
-125.364
-82.9348
-74.1566
-34.4922
-27.0702
-1.7354
-167.091
-164.186
-132.817
-168.632
-141.441
-127.215
-83.0477
-136.841
-81.6069
-73.9698
-33.8775
-78.4397
-31.7753
-27.1521
-1.50585
-25.8844
-1.70501
-167.708
-155.677
-172.388
-170.416
-167.227
-138.907
-130.76
-81.0334
-83.5293
-32.1637
-70.3027
-31.2304
-26.0042
-1.64155
-26.6915
-1.22592
-171.173
-166.415
-137.014
-129.142
-80.448
-69.339
-30.8507
-25.7605
-1.24393
-156.549
-152.286
-129.177
-122.704
-80.9507
-71.5961
-34.058
-28.3138
-2.22776
-159.049
-156.671
-154.519
-159.77
-152.048
-127.987
-151.427
-128.339
-122.225
-80.6782
-116.202
-85.3678
-71.8908
-34.8719
-67.2335
-35.0769
-29.4381
-2.22062
-22.8587
-4.55009
-153.063
-160.753
-148.359
-159.746
-151.468
-129.468
-150.144
-134.324
-117.032
-84.1845
-118.05
-86.6911
-66.1647
-35.9342
-64.0916
-36.1118
-23.0839
-4.57438
-20.4682
-5.25516
-159.538
-153.205
-147.368
-156.758
-146.744
-156.868
-150.294
-129.931
-149.106
-136.642
-152.072
-140.57
-77.7743
-121.539
-84.7039
-114.358
-94.9479
-118.623
-100.381
-32.3401
-71.5788
-36.219
-56.5754
-40.0284
-60.8991
-42.3545
-24.8473
-2.90287
-16.5575
-7.92599
-17.301
-8.21332
-153.657
-162.992
-163.088
-151.771
-161.546
-154.387
-161.928
-135.147
-167.064
-140.957
-158.615
-145.658
-165.391
-151.087
-85.2762
-135.124
-81.3119
-124.529
-99.7836
-146.243
-84.2828
-37.9333
-71.0606
-34.2633
-66.5524
-43.4201
-71.0945
-39.7188
-2.66669
-24.3422
-2.70698
-19.4336
-8.83006
-19.0821
-8.57624
-159.974
-170.418
-174.091
-156.679
-155.951
-161.861
-171.342
-166.444
-142.733
-169.243
-171.682
-151.993
-130.402
-84.1317
-81.6932
-136.813
-92.0365
-34.8835
-69.4429
-32.6938
-77.1927
-39.6419
-63.5915
-39.2834
-2.38162
-25.3723
-2.3591
-18.9072
-8.77014
-19.1921
-9.62305
-170.391
-170.181
-163.266
-176.557
-165.814
-177.973
-138.778
-173.766
-132.654
-172.41
-152.536
-170.788
-150.425
-82.978
-126.11
-75.1301
-130.561
-97.4927
-125.957
-91.452
-32.338
-68.5023
-28.7238
-59.3504
-39.5913
-57.4493
-37.6
-2.40782
-26.8239
-1.10123
-16.5133
-8.61164
-14.8983
-8.05808
-166.86
-178.46
-170.331
-177.948
-132.904
-165.165
-144.562
-167.188
-137.62
-75.2306
-123.099
-90.6084
-124.262
-89.7676
-28.9337
-56.8634
-35.4377
-67.676
-34.1794
-0.564404
-17.2109
-7.24762
-20.1562
-4.19394
-171.197
-177.558
-172.062
-171.842
-167.251
-137.35
-165.907
-137.659
-124.03
-89.7017
-124.641
-91.2746
-68.6467
-33.7036
-72.2045
-34.6005
-19.3662
-4.49369
-21.3851
-3.80885
-173.33
-170.805
-164.641
-134.019
-125.089
-86.7491
-75.21
-32.428
-24.8743
-2.59438
-156.146
-140.841
-65.801
-34.0435
-24.6496
-2.95473
-157.197
-158.23
-152.97
-155.99
-151.506
-156.694
-153.403
-130.401
-154.931
-154.816
-138.768
-122.914
-84.8417
-85.8389
-117.328
-98.905
-70.2756
-36.7893
-68.2341
-34.2765
-69.9122
-45.0712
-25.6771
-3.72547
-23.714
-4.29923
-23.9382
-7.85549
-159.53
-152.005
-158.125
-151.188
-157.802
-149.123
-156.241
-129.467
-153.014
-135.34
-155.733
-138.136
-155.237
-140.56
-85.3967
-117.547
-95.7519
-115.871
-97.0858
-120.17
-100.045
-37.9384
-65.4551
-41.0218
-73.3593
-45.8832
-71.3931
-43.2366
-4.43424
-20.2294
-7.23684
-21.059
-9.02812
-17.4823
-8.82713
-151.142
-166.445
-150.951
-159.233
-157.031
-168.207
-163.548
-110.605
-147.439
-84.2462
-131.156
-114.442
-160.96
-88.7243
-171.358
-155.474
-181.922
-166.568
-164.74
-81.8308
-138.991
-97.9101
-86.5065
-146.876
-108.151
-175.735
-170
-176.047
-161.117
-167.578
-162.401
-170.509
-172.525
-162.656
-169.364
-160.42
-168.256
-136.253
-164.795
-144.874
-161.309
-145.901
-92.1004
-124.328
-105.929
-134.929
-94.7637
-36.2696
-76.1629
-45.1055
-75.8744
-41.6376
-4.59603
-18.8868
-6.46086
-24.3677
-4.25055
-160.489
-161.77
-156.111
-147.836
-151.745
-136.264
-138.108
-89.7894
-127.25
-82.0326
-80.605
-37.4838
-71.8818
-28.7787
-24.3267
-3.51748
-25.0155
-1.7888
-159.043
-160.75
-149.562
-124.806
-107.002
-74.5605
-52.8642
-31.7708
-16.9593
-4.00416
-153.821
-153.978
-157.171
-162.698
-154.781
-159.185
-139.622
-150.724
-131.053
-157.257
-139.857
-88.6656
-111.757
-85.2603
-124.524
-88.4669
-63.1849
-34.8505
-55.0602
-37.5093
-59.4782
-41.3706
-23.5262
-3.56435
-14.247
-6.96664
-19.1936
-9.13676
-154.028
-144.097
-156.009
-139.33
-151.522
-157.18
-126.503
-97.6198
-126.744
-88.0625
-146.068
-89.3737
-163.159
-167.575
-164.932
-162.653
-169.786
-167.556
-173.414
-119.203
-162.262
-90.0466
-144.281
-124.992
-167.874
-94.7438
-165.999
-168.523
-170.799
-164.601
-180.649
-87.9433
-152.13
-110.952
-91.6146
-166.137
-117.848
-146.677
-160.223
-149.535
-156.554
-159.13
-154.719
-146.154
-105.015
-140.893
-89.188
-147.086
-106.656
-135.359
-90.1062
-161.168
-162.391
-157.72
-154.173
-160.051
-156.558
-160.388
-152.348
-136.957
-155.415
-146.438
-153.994
-136.302
-89.5749
-125.144
-83.4301
-131.518
-95.4266
-117.778
-99.0106
-39.3899
-70.5898
-30.7526
-72.0231
-41.0605
-69.9939
-41.3795
-6.16662
-23.8953
-3.2819
-18.346
-8.33683
-16.1735
-7.09147
-159.093
-154.554
-161.589
-156.224
-131.202
-152.262
-129.497
-150.303
-119.923
-80.7059
-114.916
-88.8293
-112.633
-74.3691
-30.1714
-68.8762
-33.9815
-65.8539
-27.873
-1.94718
-19.2004
-4.74966
-22.2576
-1.52569
-154.949
-159.508
-149.706
-122.682
-111.801
-71.6067
-54.7516
-31.2235
-24.2139
-2.87372
-156.217
-161.687
-152.955
-159.158
-149.453
-158.323
-150.307
-129.138
-150.463
-125.051
-151.722
-131.568
-104.3
-78.8859
-110.904
-76.0622
-109.39
-85.9503
-49.9975
-33.852
-55.2288
-31.3393
-51.2158
-34.5308
-13.3729
-6.78463
-23.0135
-3.96585
-17.0112
-9.1245
-142.212
-147.539
-160.511
-156.639
-148.541
-151.406
-154.01
-93.5832
-149.716
-90.5161
-128.674
-101.943
-140.822
-96.3271
-156.182
-158.307
-154.119
-149.388
-157.565
-161.39
-173.584
-94.1584
-138.55
-116.466
-147.133
-93.2805
-157.324
-108.883
-177.181
-173.936
-177.55
-239.595
-199.845
-269.45
-201.003
-125.146
-168.771
-94.9474
-160.969
-128.241
-186.523
-96.7366
-174.835
-188.466
-270.665
-278.917
-221.319
-92.5329
-169.983
-119.634
-92.3684
-188.635
-121.659
-172.671
-154.898
-162.038
-176.259
-188.457
-136.634
-123.819
-149.876
-112.284
-169.547
-119.843
-96.8834
-160.315
-153.048
-149.588
-153.149
-167.305
-152.899
-150.324
-104.817
-135.122
-95.77
-154.93
-94.8762
-133.679
-100.944
-158.198
-155.822
-155.773
-144.236
-151.523
-146.187
-152.686
-132.519
-148.717
-120.585
-146.9
-134.482
-144.396
-128.593
-89.6998
-110.527
-76.3332
-108.937
-92.7599
-105.716
-88.5451
-35.9713
-63.2858
-30.4139
-61.8784
-41.5597
-54.3151
-36.2963
-8.38838
-19.6764
-3.00237
-13.8105
-9.64106
-13.2609
-7.00031
-152.108
-147.074
-151.335
-118.697
-140.243
-122.024
-73.3969
-105.049
-77.1242
-27.6773
-56.1336
-30.6005
-1.79526
-15.1869
-4.24015
-148.849
-121.095
-115.42
-69.1326
-64.058
-29.0328
-26.2884
-0.87779
-152.907
-158.269
-154.935
-155.641
-145.891
-157.456
-150.325
-125.198
-149.732
-121.326
-148.421
-132.587
-111.579
-75.2303
-114.546
-69.9309
-110.959
-83.1737
-55.3531
-31.3819
-62.0364
-30.6876
-53.6062
-33.4665
-21.7775
-4.22944
-26.3555
-1.16155
-18.0871
-7.283
-163.887
-171.453
-177.782
-183.126
-174.551
-248.74
-195.864
-101.997
-165.199
-107.678
-150.72
-106.015
-178.054
-104.237
-183.658
-237.128
-200.892
-240.677
-395.212
-205.781
-114.725
-159.875
-128.76
-104.861
-178.169
-110.627
-212.298
-294.881
-208.03
-199.229
396.016
415.154
-123.974
-172.613
-116.214
-181.876
-107.671
415.305
-56.2209
-83.4632
-57.1373
-87.3361
-42.4615
-34.7083
-9.35817
-23.9159
-9.78587
-27.5875
-8.20373
-27.3895
-3.69246
-333.237
-78.8592
-368.858
233.664
377.981
261.695
376.824
-208.514
-322.27
-201.952
400.972
414.411
397.116
412.649
-116.016
-189.431
-97.8503
414.8
384.425
413.731
358.033
-51.215
-83.8832
-40.8817
432.303
-31.5476
442.814
-8.71765
-20.7772
-8.50031
-27.5742
-3.9549
-3.08166
-317.042
-111.349
-375.128
261.084
376.519
237.654
370.33
-345.178
-223.384
396.362
412.44
394.977
411.294
-94.323
-190.344
-119.794
413.054
383.345
412.039
335.636
-41.7776
-92.9161
-49.1257
443.242
405.25
-33.4864
-8.43039
-23.6242
-9.16175
-3.12368
-31.3526
-3.5339
-227.461
-295.668
-227.584
392.557
411.238
375.801
-124.278
-185.559
-135.389
411.918
367.262
-108.244
-54.7109
-95.8408
-58.4341
412.873
-34.9391
-98.7121
-42.9423
-9.32683
-22.7854
-9.05456
-28.8727
-4.08052
-28.2577
-4.85528
-234.282
-232.62
-214.642
-223.989
-339.842
-234.786
-137.557
-173.013
-139.168
-208.534
-117.621
-215.235
-113.169
-163.74
-105.272
-140.6
-94.685
-257.347
-96.1793
-159.039
-197.153
-144.292
-173.263
-187.689
-192.351
-125.091
-161.37
-98.9952
-165.847
-115.244
-48.7978
-83.8248
-46.2838
-99.0651
-48.0334
-84.5897
-48.5258
-165.982
-154.712
-154.473
-165.36
-173.449
-149.816
-160.871
-106.51
-134.139
-117.665
-154.867
-123.19
-139.202
-121.608
-151.255
-141.745
-150.211
-145.28
-153.578
-124.449
-144.769
-131.055
-146.431
-121.364
-84.0798
-106.865
-89.3045
-108.316
-79.0682
-35.5024
-56.3163
-38.1181
-63.1287
-28.3692
-6.41008
-14.7592
-8.14651
-17.2168
-3.77985
-145.852
-152.281
-146.373
-117.421
-109.674
-78.2845
-65.9268
-27.7598
-17.5593
-1.45179
-156.003
-156.228
-147.162
-154.861
-148.783
-122.906
-149.072
-135.17
-114.644
-70.3177
-123.04
-85.3169
-64.7401
-31.1743
-64.3648
-34.2731
-26.5345
-1.0439
-22.4324
-4.27569
-158.409
-144.151
-155.235
-144.952
-155.698
-140.455
-152.778
-125.317
-153.628
-139.794
-147.904
-136.279
-153.616
-142.958
-78.5186
-117.671
-87.5622
-118.524
-94.0959
-122.447
-96.1947
-33.614
-54.7392
-36.2783
-62.8567
-39.2091
-62.2506
-38.8606
-3.06007
-15.2525
-7.98728
-19.7928
-7.20954
-16.3491
-8.4022
-197.271
-271.387
-201.212
-279.276
-200.59
393.485
-122.236
-174.56
-105.38
-157.574
-123.455
-96.138
-201.293
-206.136
393.837
418.509
391.431
412.81
-101.563
-186.782
-101.727
419.223
-96.1225
413.223
386.709
-41.9869
-89.263
-39.6659
-92.3264
-33.0084
433.564
319.239
-6.12745
-26.214
-4.06917
-25.4768
-3.61733
306.602
394.972
414.552
393.677
408.158
389.127
403.534
-98.6998
416.149
454.511
410.394
401.754
407.589
416.495
-37.5632
433.372
417.415
316.347
420.072
325.866
-4.41662
-26.8633
-1.29107
303.689
2.39296
279.972
-0.775853
412.787
394.503
406.332
387.499
401.371
387.567
399.834
402.436
412.846
343.984
406.486
405.96
405.923
428.18
449.927
316.091
432.326
302.19
433.222
235.545
-1.21108
321.744
-1.67541
244.715
5.29421
276.725
20.1259
404.866
392.112
408.737
385.968
398.942
383.036
396.966
378.672
410.368
384.594
406.152
414.583
401.872
443.879
319.695
407.668
327.148
415.891
301.496
384.568
311.62
-1.64788
-0.860905
287.703
307.837
-2.17622
409.294
378.139
410.993
382.051
396.96
382.202
399.723
359.263
410.974
-107.946
401.849
392.876
403.119
370.18
-102.297
-35.7643
367.131
259.517
386.862
282.638
-1.28384
-27.4
-3.65567
268.046
2.57931
287.662
7.10158
410.209
-359.067
375.468
401.791
381.78
405.472
-110.76
-111.23
403.846
492.708
405.429
395.922
-37.2932
-104.629
-43.9067
385.103
285.525
383.382
-30.1196
-3.9523
-25.5048
-6.43641
288.588
7.7815
-30.7438
-2.74843
-260.405
-217.211
373.911
406.745
-364.759
-224.606
-168.942
-128.255
406.412
388.057
-185.293
-118.693
-49.0437
-83.9324
-54.6121
-31.1633
-81.0716
-54.3449
-151.03
-140.603
-153.031
-119.424
-145.543
-130.706
-79.4654
-119.916
-88.2154
-29.0266
-66.1899
-28.7376
-2.64507
-16.1507
-4.33367
-143.593
-150.61
-141.099
-150.32
-149.648
-136.378
-143.506
-133.707
-127.098
-79.9365
-122.557
-90.8407
-63.7227
-34.0342
-70.9925
-37.2219
-23.1321
-3.6396
-21.9539
-4.80826
-153.012
-137.637
-152.079
-137.881
-150.422
-132.875
-141.2
-140.995
-151.298
-144.444
-144.587
-136.033
-152.681
-145.096
-86.9475
-130.485
-92.1843
-127.346
-91.8743
-139.645
-82.0897
-38.8337
-68.7393
-40.2145
-70.8058
-40.6013
-64.4116
-42.4305
-149.577
-151.578
-150.094
-154.172
-147.772
-140.951
-95.5049
-132.364
-107.054
-141.103
-82.578
-84.9788
-157.022
-159.877
-170.178
-140.481
-164.188
-172.19
-177.144
-115.827
-143
-122.888
-155.491
-87.5192
-160.409
-109.186
-186.611
-262.06
-208.527
-201.5
-186.524
-373.221
-200.576
-123.065
-155.039
-118.077
-164.838
-120.225
-171.304
-105.913
-197.876
394.407
418.693
-192.5
395.624
415.422
-111.457
419.174
-97.0233
-175.2
-98.8858
416.282
422.122
-45.0881
-93.4201
-34.4759
-82.5999
-42.1134
397.919
319.358
-8.19849
-26.927
-3.90209
-28.5852
-4.21702
308.968
-0.176785
412.601
417.474
413.442
350.47
411.435
382.054
-29.8567
438.492
311.481
373.088
308.061
371.508
233.225
-3.02677
300.839
303.791
8.30048
294.473
-4.79702
419.891
406.278
380.157
411.969
436.618
409.418
443.992
306.8
413.951
308.272
368.085
301.954
421.007
309.264
-2.13125
323.082
-2.22825
307.176
-3.698
308.731
-25.4109
415.016
404.173
430.198
406.472
534.434
400.408
587.883
310.394
432.623
245.427
411.25
301.843
425.132
341.683
2.68307
279.413
17.6885
215.247
346.169
-6.39254
416.312
401.736
406.45
401.266
444.74
400.523
426.096
298.583
389.771
319.513
418.07
147.018
422.505
259.261
293.799
-3.69028
286.196
101.807
371.608
401.691
413.859
401.402
424.586
400.838
384.285
303.39
390.93
287.012
424.483
296.846
348.657
301.61
2.10803
295.442
10.0878
281.625
295.197
-5.72556
391.077
403.39
394.22
399.926
239.917
397.956
402.104
271.829
405.555
364.569
255.056
422.1
289.069
6.11636
-1.72276
295.587
-2.98493
265.533
8.55368
405.624
-388.305
-223.478
382.733
397.494
375.333
406.387
403.976
-188.068
-114.908
399.025
396.403
405.839
-31.1428
-85.6061
-46.2093
421.133
282.872
-89.1528
-34.7819
-3.17261
-26.3771
-4.66958
285.179
16.9342
-27.2913
-3.9566
-223.924
-243.563
-211.413
372.492
-266.648
-205.26
-120.463
-170.827
-130.493
-101.527
-168.676
-125.562
-56.3209
-84.5954
-56.3882
-89.4669
-40.8292
-83.6691
-51.0563
-186.8
-158.769
-169.755
-220.412
-196.725
-150.842
-170.066
-128.424
-143.331
-121.738
-171.042
-111.077
-163.144
-102.27
-154.26
-149.744
-144.102
-131.244
-167.997
-136.715
-109.829
-131.142
-95.5289
-161.198
-96.0901
-82.6286
-142.975
-144.355
-137.829
-141.758
-152.592
-139.843
-137.391
-92.374
-124.78
-89.6602
-141.145
-84.0786
-125.935
-83.4351
-146.574
-137.551
-147.718
-145.545
-142.327
-133.515
-141.376
-133.612
-138.593
-122.888
-85.1504
-120.611
-86.6456
-116.472
-76.4306
-32.5104
-62.3064
-33.8046
-60.1076
-30.0557
-6.24112
-14.0439
-6.98059
-19.98
-2.55909
-141.612
-141.876
-120.683
-114.14
-71.7574
-61.2767
-27.1129
-21.6804
-2.03219
-140.229
-152.148
-144.37
-139.664
-148.27
-143.98
-126.506
-142.75
-119.22
-143.753
-128.456
-111.369
-93.0171
-115.411
-74.7226
-110.256
-90.5604
-69.7846
-43.8304
-69.5279
-30.4493
-64.2017
-39.7653
-18.0129
-8.20823
-27.1185
-0.051658
-17.9987
-8.7527
-131.76
-150.78
-141.12
-143.96
-135.746
-147.283
-143.393
-97.7138
-133.928
-88.9755
-114.724
-102.623
-121.613
-107.125
-146.309
-148.831
-147.608
-152.735
-160.532
-92.7196
-126.987
-111.795
-138.636
-118.635
-181.79
-180.12
-156.495
-170.408
-220.043
-196.094
-169.151
-98.9407
-151.465
-115.333
-170.901
-114.805
-196.841
61.4115
-425.565
-111.646
-248.762
195.64
386.476
-183.775
-377.247
-192.27
-258.39
-202.195
398.968
418.728
-107.042
-176.689
-104.513
-178.563
-115.642
419.057
-47.8766
-84.6149
-41.8173
-87.1333
-48.3335
-37.018
-9.27229
-29.2847
-7.68421
-23.0714
-9.23821
-27.8024
-4.0476
-189.981
399.381
412.906
399.612
417.687
394.142
408.251
-96.1769
414.317
382.53
418.534
414.938
411.151
408.352
-39.5234
393.935
317.077
439.041
-28.759
418.698
253.357
-4.51198
305.776
-2.16548
-27.6961
-2.0537
286.986
-1.84452
495.62
410.384
397.366
409.162
359.422
407.349
399.232
305.464
397.159
319.193
405.636
300.162
439.001
229.044
0.392794
323.714
310.539
-1.64828
317.076
-42.0814
386.815
410.46
418.941
406.797
470.031
391.833
473.652
282.768
422.887
316.188
440.677
259.242
410.072
235.011
-5.29504
371.442
-9.96015
311.053
377.428
582.21
396.458
567.856
385.309
436.831
381.185
359.759
258.678
428.941
309.169
360.525
247.775
342.1
283.791
-19.4058
309.018
-2.34992
284.329
279.244
330.308
380.597
377.128
378.453
393.033
382.271
384.537
381.507
391.983
381.262
390.262
383.617
390.655
382.219
372.613
444.05
396.752
460.314
385.286
361.378
378.219
353.184
283.733
427.914
107.277
343.644
276.695
288.241
315.831
255.346
271.506
293.827
294.174
237.399
428.287
402.371
257.566
384.629
385.613
392.427
429.927
275.724
355.616
343.235
292.705
274.475
429.628
301.996
486.077
-10.7127
272.175
213.079
319.507
411.217
395.347
401.387
394.661
541.536
395.902
389.346
332.297
418.882
301.848
429.53
279.614
391.258
225.159
-13.1312
269.235
10.8236
353.457
277.205
2.03125
394.058
382.07
405.48
373.55
390.082
383.67
400.996
420.074
405.715
396.194
414.105
402.138
335.117
279.03
-32.3412
404.256
250.599
346.07
296.849
12.6345
-26.6003
-2.31
276.048
10.1893
288.91
-0.966172
343.905
-56.4047
-239.495
212.167
348.921
-13.6584
-356.061
406.966
-277.242
-211.98
384.683
405.684
-350.77
-212.494
-102.621
-178.739
-113.228
405.031
298.814
-188.855
-116.851
-38.4722
-88.9606
-46.9399
381.097
298.336
-91.5144
-41.6715
-3.70021
-21.553
-8.67625
-1.90521
-21.5335
-8.23689
-198.471
-135.268
-275.53
-211.605
-169.533
-183.458
-108.555
-101.665
-185.003
-117.585
-163.292
-111.327
-137.503
-148.227
-158.263
-173.884
-151.409
-152.739
-140.769
-85.0334
-157.39
-110.944
-135.571
-107.413
-145.898
-143.276
-134.353
-145.417
-140.59
-142.103
-133.359
-87.1948
-120.454
-84.7166
-120.272
-104.442
-113.244
-98.0513
-145.464
-144.663
-147.362
-135.859
-145.734
-142.497
-150.54
-127.313
-140.067
-119.579
-144.318
-127.365
-140.233
-110.524
-94.0185
-109.892
-75.7484
-107.592
-86.3482
-101.291
-78.6805
-37.5398
-59.6181
-28.9987
-60.4536
-39.3753
-63.3163
-30.1997
-7.40945
-19.1701
-3.36859
-15.2456
-8.04407
-20.7063
-3.70753
-144.848
-144.539
-143.047
-116.714
-138.094
-108.614
-71.7308
-104.038
-72.6209
-26.3392
-64.6462
-28.4995
-1.84022
-23.9934
-2.18711
-117.24
-117.166
-75.8311
-66.8666
-29.4911
-24.3718
-1.43616
-143.478
-135.896
-145.236
-144.946
-141.398
-135.676
-144.646
-118.873
-141.338
-131.799
-140.603
-118.756
-139.816
-131.147
-74.0209
-108.632
-91.5168
-113.224
-78.1272
-110.026
-92.8775
-29.51
-59.1923
-38.933
-65.4929
-32.2598
-56.5467
-37.9184
-0.0264965
-15.1081
-7.65066
-22.2076
-3.22337
-14.4368
-7.52311