/*--------------------------------*- C++ -*----------------------------------*\
| =========                 |                                                 |
| \\      /  F ield         | OpenFOAM: The Open Source CFD Toolbox           |
|  \\    /   O peration     | Version:  4.0                                   |
|   \\  /    A nd           | Web:      www.OpenFOAM.org                      |
|    \\/     M anipulation  |                                                 |
\*---------------------------------------------------------------------------*/
FoamFile
{
    version     2.0;
    format      ascii;
    class       volScalarField;
    location    "16";
    object      p;
}
// * * * * * * * * * * * * * * * * * * * * * * * * * * * * * * * * * * * * * //

dimensions      [0 2 -2 0 0 0 0];

internalField   nonuniform List<scalar> 
146404
(
-3.1647
-1.43931
20.6851
15.8811
-1.10666
-6.78589
-2.36936
29.8148
22.438
-14.4742
-2.27016
25.9765
19.8402
-1.52694
-4.09219
-2.23355
1.27464
-2.22553
-0.984665
19.1815
14.9607
1.08679
-2.48658
-0.738887
21.0415
15.4181
-0.956315
-6.79774
-2.14946
23.6683
12.636
-3.95167
-8.0393
-3.65221
27.4285
19.2276
-3.52702
-9.47029
-2.55237
34.6663
34.1974
-14.4513
-3.54181
30.9921
23.3317
-1.48146
-8.31228
-3.59177
29.964
20.9853
1.63993
-8.25214
-4.76425
29.0046
19.6749
-0.113302
-5.09897
-2.53006
29.3858
19.11
1.95555
-3.0909
-1.45076
28.8305
-4.70719
-2.27468
26.5728
18.8742
-4.18273
-6.65509
-3.82742
27.8587
15.1218
-2.3107
-7.61131
-4.77303
30.2573
11.236
-5.75781
-7.95131
-5.17802
34.3891
20.2911
-5.70716
-10.8276
-5.10282
41.7359
34.8059
-21.0944
-6.33222
36.9158
21.6895
-5.41789
-11.4914
-6.31806
39.6459
16.4653
-4.30086
-8.59005
-4.89616
35.3999
23.39
0.843943
-9.40718
-4.55294
35.2644
25.7448
-1.00675
-6.98369
-2.2387
36.7398
29.7257
-10.3997
-0.786264
24.6073
1.86046
-5.99926
-0.522125
22.6778
15.249
-3.54874
-6.34001
-2.41808
29.9118
21.8466
-8.03372
-7.5563
-2.86562
36.5268
24.3204
-8.933
-10.1878
-5.68762
40.5293
15.545
-6.67185
-10.6628
-7.41528
54.5145
0.97628
-7.88984
-12.5629
-7.08673
69.9902
-5.14544
-17.6897
-14.9218
-7.55011
78.2442
39.7317
-22.9588
-7.35506
67.374
1.25631
-21.0811
-18.6605
-9.13373
52.0669
8.66248
-15.1927
-16.8103
-6.86095
48.1963
24.4194
-7.97933
-17.7824
-6.53909
43.6656
33.9757
-6.62459
-12.987
-2.92691
36.6721
26.6084
-1.98265
-5.66035
-2.6724
31.0317
23.9503
3.17715
-4.79715
-2.2543
23.1974
6.98111
0.514704
0.164211
19.694
13.8851
-0.0546885
-7.54649
-1.86799
24.553
13.0242
-2.15342
-5.92302
-3.8978
32.0843
17.6134
-5.15555
-9.40199
-6.00437
53.2175
19.3227
-18.242
-12.6229
-6.95063
87.6708
8.39518
-25.1185
-20.1189
-10.8765
116.065
-80.7539
-36.8712
-15.6132
-7.83978
136.177
-188.462
-41.0053
-18.8327
-6.396
168.813
-150.465
-22.4301
-7.12324
138.508
-195.941
-58.7833
-25.0706
-8.04535
117.363
-129.808
-51.4499
-22.8237
-8.44858
81.4615
8.45262
-36.5145
-25.2319
-7.76396
55.7173
29.8142
-15.6727
-16.4511
-6.21589
38.5838
23.9549
1.15417
-5.56016
-4.33225
33.5943
21.7693
5.01806
-4.51496
-2.11253
29.5228
22.7697
5.70196
-2.20473
-0.892891
19.7629
15.349
-0.838547
-2.90033
-1.18707
24.3296
17.1332
1.82004
-7.56454
-3.32325
30.0418
11.7917
-5.20899
-6.76951
-5.07731
45.289
3.07168
-15.7954
-11.1414
-5.49651
91.8497
-58.9729
-30.9837
-17.6584
-7.10757
146.791
-139.732
-51.3885
-19.7335
-7.35205
338.324
470.774
-20.4542
-7.19648
413.101
469.351
470.254
444.888
417.769
465.624
468.684
463.982
298.768
405.468
465.579
470.697
461.024
337.705
461.807
-24.6034
-7.88984
194.564
-27.3576
-8.27591
90.4027
-27.1083
-27.5664
-13.4293
-6.07878
45.5398
22.0844
-4.56636
-8.51006
-5.48102
38.2662
27.3777
5.27857
-8.3202
-3.41474
33.8396
26.0639
5.07017
-4.65394
-3.02029
29.9369
23.797
5.68629
0.942324
-0.0981418
26.8014
20.1315
-3.43704
-3.77556
-1.84761
28.4805
20.6309
-4.99193
-7.25167
-3.11442
36.2598
15.1453
-9.74344
-12.3744
-5.58253
74.3366
-22.0556
-24.3624
-16.9602
-8.94942
142.785
-171.106
-47.2236
-22.2417
-6.88886
407.893
471.334
474.483
-8.0774
445.659
465.116
467.948
432.735
279.149
448.549
461.73
465.471
470.103
300.944
447.606
460.717
466.846
458.93
268.318
442.633
460.836
465.86
450.94
314.708
422.414
461.488
467.355
426.31
274.044
377.341
466.176
470.952
463.881
-8.70314
200.425
-191.102
-72.8117
-19.5436
-8.47423
67.8504
-1.25206
-21.2999
-18.9036
-7.40342
46.3682
32.6178
-6.22472
-14.2111
-4.5458
39.6686
33.0548
1.05007
-6.64653
-1.60434
36.8696
28.2112
0.782061
-1.21179
0.142863
24.667
17.5318
-5.04511
-5.67642
-2.31557
30.9593
25.5864
-10.7439
-10.2193
-4.58393
49.8955
-17.2769
-7.51803
104.453
-39.7609
-37.4322
-21.0374
-8.93634
334.205
-43.0221
-22.3751
-8.47247
446.396
465.981
472
422.682
264.567
452.322
462.443
471.723
400.065
270.889
451.539
461.022
470.74
470.134
300.382
451.101
459.627
466.656
469.39
231.597
449.247
458.842
470.355
489.721
348.953
441.424
458.617
466.083
399.063
348.961
417.121
460.919
462.955
458.259
281.132
330.111
456.726
470.021
-20.3801
-8.40035
104.502
-54.5008
-51.4923
-24.9433
-7.55771
55.3459
102.366
-36.0009
-5.65451
42.2174
36.9911
-4.1775
-9.92205
-2.09311
36.1838
27.4958
3.67148
-0.872898
-1.42604
26.228
9.23204
1.40217
1.50534
14.5723
2.85373
-2.39836
-0.664737
21.2815
12.6611
-2.49412
-7.37074
-3.94982
28.2975
8.89932
-7.80602
-8.78286
-5.87339
56.6067
-4.58875
-17.4454
-16.504
-8.88098
110.881
-136.365
-52.747
-21.9108
-7.78316
412.024
469.818
472.975
480.156
-8.34196
450.703
463.72
469.58
422.538
250.718
452.796
462.068
468.957
489.837
251.674
453.973
463.865
452.117
359.616
258.665
451.212
461.997
451.702
359.001
230.232
451.132
459.304
450.425
346.969
263.961
445.924
457.766
465.878
478.968
193.752
429.121
457.65
462.014
443.94
234.04
373.701
465.119
469.233
416.384
286.505
140.274
-191.249
-53.3619
-21.8415
-7.17589
48.7523
21.5092
-10.4493
-10.565
-6.05205
39.0989
24.9966
4.80282
-4.12717
-2.50799
34.7928
26.8635
8.06098
-3.39457
-2.57345
30.0735
24.307
11.9957
2.04782
0.796117
10.3768
13.0637
2.33165
-4.76011
-1.24998
21.0263
12.0621
-2.65492
-7.48195
-3.87515
28.1423
9.03603
-7.83975
-10.1192
-6.19563
59.7744
-6.90264
-13.7351
-17.0564
-9.1984
135.933
-175.955
-52.5556
-21.2258
-6.98049
417.409
469.395
472.062
458.29
451.27
464.297
469.265
469.608
320.588
454.093
463.653
476.738
477.886
219.183
453.682
466.543
458.924
347.044
253.794
451.483
459.825
439.852
353.241
240.529
450.381
460.979
450.272
357.554
247.975
447.328
458.737
464.546
492.494
227.086
432.802
458.332
464.867
474.65
247.249
381.869
461.937
469.575
445.358
295.983
156.691
-173.828
-56.0119
-19.9997
-7.69159
47.2601
19.673
-4.53712
-8.37524
-5.15553
39.3954
24.0448
2.40668
-4.56239
-2.41399
34.4638
26.2069
8.74484
-3.77191
-3.5782
30.1395
23.773
9.68835
1.03905
-1.15924
13.174
1.9485
-3.46299
-1.24605
21.019
14.7904
-2.13033
-6.67074
-2.56024
29.245
17.0788
-5.32765
-10.9178
-5.12404
55.7881
4.96046
-16.5465
-21.111
-7.8589
133.84
-118.397
-50.9663
-22.44
-8.52873
403.734
469.159
472.703
438.201
-8.17166
448.322
465.392
468.664
455.603
267.268
455.016
464.271
474.596
476.444
247.456
456.195
464.589
459.777
372.138
251.525
454.25
465.897
450.343
355.675
258.306
453.679
463.952
455.801
375.743
276.473
446.004
461.257
470.177
472.913
165.912
430.217
462.001
465.996
393.894
263.422
366.597
468.242
470.576
459.821
305.47
122.951
-163.077
-63.0217
-26.564
-8.17531
54.1644
19.7849
-16.2754
-18.0858
-5.7164
40.0817
28.9284
4.01223
-6.97358
-2.61072
33.9237
26.0828
5.32883
-4.94131
-2.60028
30.5056
24.143
10.0601
2.14192
-0.622592
25.757
17.6369
-6.90348
-6.79068
-3.12305
31.5692
23.7204
-9.46981
-7.52866
-4.04013
45.6178
-13.7819
-6.34996
90.8007
-26.1764
-39.917
-22.1804
-11.3774
313.837
-45.9322
-23.8516
-7.25698
428.992
468.209
469.499
465.394
279.817
449.678
465.47
470.702
463.647
229.4
453.365
464.986
469.348
484.803
352.482
453.161
466.055
481.729
478.585
243.126
449.089
464.123
470.353
474.184
261.195
441.723
463.182
466.851
414.229
262.634
415.855
466.094
466.054
405.347
284.281
318.165
463.212
472.197
-27.4799
-9.18252
89.3843
-38.0435
-43.4125
-27.2025
-7.80645
48.2721
46.1876
-29.175
-4.36474
39.3394
33.2058
-3.4025
-12.7159
-1.78215
35.2127
30.9727
0.733617
-3.63629
-1.70639
23.834
5.46161
-0.799001
-0.498264
22.5092
15.4869
-7.49071
-6.46478
-2.62534
24.1557
16.2468
-6.01147
-9.23229
-4.12948
29.7321
8.24974
-8.07808
-10.5104
-6.40035
61.8835
-8.44025
-15.9739
-13.893
-5.99716
139.167
-146.537
-51.037
-21.0298
-6.69228
360.243
474.398
474.645
-8.55415
425.477
468.129
470.398
457.852
259.072
439.317
466.507
468.519
477.908
240.415
441.065
466.337
473.913
383.181
158.968
436.407
465.718
467.773
472.262
257.642
416.906
467.588
466.736
438.516
268.476
368.593
469.763
471.605
363.404
-10.4912
105.74
-108.546
-38.7032
-23.656
-8.44454
38.4685
10.8169
-9.16341
-13.8063
-7.86628
30.4618
20.2495
-3.86135
-14.4666
-3.93697
30.5677
22.8971
-2.55562
-8.3966
-1.57042
31.1079
25.4842
-2.82682
-3.08899
0.53805
13.5952
11.099
-2.46122
-3.73437
-1.44152
18.0097
12.1849
-2.19761
-7.05473
-3.69757
22.5461
10.9494
-4.10982
-8.59747
-4.40874
36.2803
9.23705
-8.701
-10.648
-6.44329
72.6417
-16.9603
-31.0743
-17.5485
-7.19279
125.955
-87.938
-54.5875
-20.5995
-8.66895
309.068
473.82
-43.7437
-22.5853
-7.92275
384.304
472.58
472.66
426.019
393.136
472.261
473.732
432.261
311.619
383.308
472.428
471.606
453.538
312.713
468.021
-23.1001
-7.49611
112.05
-23.4514
-7.11414
64.1302
-1.50609
-23.849
-18.8308
-6.76094
29.487
12.9308
-4.46526
-8.22037
-5.74741
24.3073
14.211
-0.42225
-7.01998
-3.25092
23.9512
18.213
1.30959
-7.85288
-2.9105
23.8318
17.0555
2.28491
-1.53937
-1.04142
15.2632
11.4442
-2.70654
-5.97526
-2.19805
19.2803
13.1916
-0.929472
-6.99253
-2.63516
27.359
16.198
-7.76486
-9.72187
-3.49835
42.1817
18.3455
-19.1281
-15.735
-5.39626
58.5681
1.01242
-21.1343
-16.4889
-6.82147
82.6422
-29.3882
-23.9298
-18.3228
-7.71961
102.091
-80.7869
-36.4967
-19.785
-8.05554
114.789
-136.227
-18.7839
-7.56871
100.274
-81.8475
-33.6205
-19.3384
-7.90427
82.3055
-22.7952
-25.0555
-16.3141
-7.07778
56.9377
6.49288
-23.3943
-21.1134
-5.55377
41.2357
23.8518
-16.4036
-17.8736
-3.56952
29.2781
18.5327
-3.69318
-10.6916
-3.76057
23.1006
16.3205
0.688597
-8.96904
-4.13659
21.044
17.0763
2.304
-5.61996
-1.85863
17.947
12.8144
-7.15302
-6.92968
-2.65778
25.0598
18.6057
-9.71928
-8.32845
-2.9005
28.2677
18.5578
-13.387
-8.46566
-4.14446
25.4106
9.88861
-7.03751
-10.0114
-5.42419
28.9295
8.30175
-8.48523
-10.2806
-6.44017
47.6363
3.7218
-14.3343
-14.8792
-5.3851
54.4381
2.45509
-17.4319
-5.62485
34.336
7.99723
-11.2245
-10.6849
-6.29283
29.7931
11.7716
-3.51241
-7.58396
-4.89077
32.4917
16.6935
-5.28424
-11.883
-4.4689
31.8026
23.48
-11.0524
-11.2834
-1.62813
28.2336
21.8705
-8.48555
-7.52293
-1.76198
23.488
16.732
-2.46413
-4.7708
-1.94536
15.2535
2.48582
-3.42698
-0.888354
22.1449
-2.22011
-2.40465
20.1803
12.4731
-6.84216
-8.97594
-3.91378
20.358
13.2164
-2.499
-8.70233
-6.1572
21.5315
10.3753
-5.03767
-8.31758
-3.45829
28.2005
17.1856
-4.952
-10.8772
-2.61198
34.985
16.3596
-14.1472
-3.44658
26.9022
19.8944
-1.29193
-6.93869
-3.23572
26.0371
15.9842
-2.1051
-6.35751
-3.46512
23.1781
14.2906
-0.987388
-7.60214
-4.48128
24.0839
14.951
-5.11679
-6.28914
-1.71669
27.1293
27.1091
-7.19178
-10.224
-0.584319
-0.735026
-3.97493
-0.832024
13.677
10.4354
-2.25897
-3.64072
-3.0232
16.265
11.8889
-1.92727
-4.51101
-2.56428
18.4163
13.2795
-0.978404
-7.22623
-3.96216
23.2434
15.8259
-3.54113
-9.46258
-3.43072
29.4646
15.9959
-8.5556
-2.57579
25.2187
17.6027
-1.96449
-7.10752
-2.04801
21.5723
13.8317
-2.51059
-5.90351
-3.11236
19.9729
13.6716
-1.73959
-5.10531
-2.17105
18.3401
13.5424
-0.688688
-3.22022
-0.791051
15.592
13.5795
-0.0675114
-5.8212
-2.32711
21.0788
11.8097
-4.80316
-1.86662
18.7378
16.1568
-1.13017
-3.30992
-1.54426
-0.698425
-0.910428
1.57362
-0.187504
-7.1981
-5.89291
-3.41898
-2.30138
-0.103812
24.7514
25.5124
1.43516
13.918
-6.08382
-0.798087
-7.74188
-7.84674
-9.96308
-6.35322
-3.2811
-10.2652
-3.38526
-2.48849
-0.159537
-2.51396
0.140337
25.1114
35.9033
25.0754
21.2322
21.9574
-0.0423404
-2.5918
-5.45965
-17.9623
-3.18235
-4.29317
-2.13077
-2.4625
0.0182195
-1.42878
-0.191364
23.0899
21.1305
1.17802
-1.27139
-4.83912
-3.86834
-2.3837
-1.69779
-0.195287
16.7273
14.5411
4.74322
2.44225
-3.49763
-2.22904
-0.690109
-0.181376
-0.0343014
15.0476
16.7013
18.8004
17.883
14.6053
4.1432
14.357
3.42263
1.84588
-3.22069
0.513891
-3.38723
-2.35585
-0.364054
-3.49817
-2.25498
-0.0106379
-0.187696
-0.569851
-0.483778
19.4266
17.9794
20.9831
19.2432
14.4983
3.29685
15.9595
4.24328
0.198339
-3.98231
-0.251063
-6.33941
-4.23482
-2.50455
-5.65404
-5.10608
-0.451602
-0.139461
-3.16209
-1.0893
19.591
16.527
21.1242
19.6287
23.0537
21.2771
15.3592
2.26882
15.1112
8.88286
16.1203
8.78801
-3.74285
-1.14974
-6.84326
-1.11293
-7.24605
-2.25471
-9.0082
-4.04352
-5.63622
-3.945
-7.19403
-6.41581
-8.79553
-7.3334
-2.11882
-0.36428
-3.37759
-1.67504
-3.83791
-1.71888
16.7953
28.8267
27.2402
26.2866
24.1149
30.4929
32.7215
2.75591
16.4309
-6.65292
17.868
6.86009
22.1983
-8.34416
-8.2873
-8.54235
-10.0048
-5.00074
-9.38798
-11.4
-12.1868
-3.61301
-5.94593
-4.104
-7.71378
-6.03246
-7.23609
-5.08025
-0.599537
-2.77471
-0.221814
-3.14328
-1.65144
-2.30468
-1.31068
31.7922
26.4637
26.5291
32.9885
41.4732
31.436
30.0408
20.4327
1.50669
31.5162
24.8983
2.19737
-2.45406
-6.23028
-12.5873
-3.29191
-7.57051
-3.39382
-4.63589
-2.98261
-13.898
-5.10592
-7.32706
-4.22556
-0.231161
-1.75035
-0.598
-2.05042
-0.974305
-2.38431
-1.76549
22.9533
20.6504
29.9555
27.6734
29.0023
26.5542
2.5267
19.1952
2.51053
21.4654
9.69577
19.9523
9.32855
-4.7925
1.14938
-2.21823
-1.59583
-6.95122
-1.86229
-7.26551
-3.33882
-2.18461
-1.77861
-7.19372
-5.96462
-7.12236
-5.31144
-0.542464
-1.46933
-0.412904
-3.60767
-1.94087
-3.19603
-1.82271
29.2944
25.3733
28.5243
25.2406
2.77174
17.4532
7.52491
20.0742
4.62612
-2.43682
-1.4419
-5.86217
0.122366
-3.54209
-1.27898
-5.40759
-3.10702
-3.37596
-2.79514
-0.58642
-1.76463
-0.904349
-1.25309
-0.758547
27.9944
24.8052
27.5858
21.9374
19.7764
4.5632
19.4906
5.83481
0.671111
-2.67775
2.47656
-2.78779
-3.06879
-2.82609
-2.17386
-2.55039
-1.9376
-0.74374
-1.70691
-0.512646
27.0972
21.0381
18.8704
4.58694
2.88729
-3.29714
-2.30434
-2.28379
-1.08598
-0.374601
26.2379
41.8944
-2.50976
-2.7958
-1.9501
0.031851
17.214
17.2134
26.7737
29.5246
24.3666
22.7345
15.0418
5.06307
18.6296
16.0871
3.37955
2.11705
-3.8344
-10.2777
-4.29607
-6.52843
-2.6849
-1.36521
-1.88373
-4.50038
-4.05926
-3.63501
-1.00358
-0.337314
-3.16815
-0.531489
-2.67031
-1.22606
18.9435
20.4893
18.8377
23.2465
21.2508
22.8765
20.6866
4.25184
14.3783
7.10718
16.1267
6.21635
16.269
8.60553
-3.53631
-1.12468
-4.35435
-3.62762
-7.18598
-1.62429
-6.92503
-1.00569
-4.49162
-3.58269
-5.36918
-3.46427
-6.87361
-4.04531
-0.424074
-1.54809
-0.331389
-2.43338
-1.53135
-2.47229
-1.53157
8.59757
21.4978
-8.48614
19.675
8.22669
30.6881
-11.3722
-10.4219
-11.9934
-12.9634
-3.93379
-10.667
-14.3301
-18.2885
25.7911
3.13287
34.3856
25.8095
3.2322
-13.2641
-3.24303
-7.98666
-18.0562
-4.2254
-11.181
26.1395
29.0809
25.0808
31.2458
28.1532
31.1642
27.9946
24.981
32.0942
29.1919
35.0435
35.0823
5.17741
21.3921
8.61416
28.5093
1.00856
-3.63118
-2.34178
-6.15318
-3.03626
-8.41727
-2.27316
-5.61987
-4.3
-4.91695
-4.55747
-0.460959
-2.12444
-0.842844
-2.12421
-0.623741
35.3986
38.6073
31.6565
-0.778063
23.5972
3.25571
-3.19276
-8.91759
0.106452
-7.33999
-6.85606
-2.19664
-5.85103
-1.57557
-1.00588
-0.307241
0.0995245
0.0843051
21.1055
18.4672
13.5148
0.760458
-2.67085
-6.75609
-5.07421
-2.30217
-0.30217
-0.112528
27.4761
31.1016
22.5597
20.1212
26.4938
25.0046
46.408
13.2849
2.52115
19.3308
-2.28676
-25.3891
-5.18531
-7.42775
-6.76115
-8.92556
-0.670781
-3.40488
-6.06325
-3.60719
-5.85744
-4.25618
-1.91262
-0.330185
-0.461525
-0.628634
-1.51413
-0.908373
19.8535
0.179951
21.0459
-4.46313
25.9462
-7.15823
-4.15199
-7.15785
-9.10795
-9.27723
-8.45527
-15.7059
5.25477
30.0774
-12.2112
9.84097
-3.66713
20.3845
-24.2907
-11.5821
-14.9225
-19.2901
-11.1798
-14.7526
-22.2717
-21.4888
25.2779
0.988717
37.402
14.2844
-12.0814
-19.2877
-5.07172
-13.5817
-21.4236
-15.0187
-20.2711
5.33867
31.732
-0.972438
32.8401
1.51853
32.5355
-0.919846
-7.82553
-3.18212
-9.67986
-5.96418
-15.5722
-4.08989
-11.6343
41.7184
29.2225
26.5941
36.5431
35.9578
33.5907
31.3088
22.3371
6.09451
29.4389
2.08538
23.1218
8.8707
-10.1633
0.0492498
-7.47503
-4.56625
-11.3803
-1.71523
-5.8152
-2.88743
-6.15707
-2.17343
-7.47716
-4.96187
-5.90725
-4.5015
-0.00822562
-0.62735
0.0899122
-1.07669
-0.550223
-1.34491
-0.738595
27.0072
31.8959
28.7857
25.5995
5.07849
24.0399
7.4992
23.0077
8.9702
-7.13925
2.18207
-4.18538
6.62463
-0.57788
-2.18798
-4.43892
-3.53699
-0.112562
-0.507604
-0.00595587
-1.69205
-0.769523
-0.131545
-0.284883
17.1102
17.5332
13.8921
2.92198
0.0384271
-4.57535
-3.50695
0.170015
0.472681
-0.354721
21.1047
19.0129
18.4677
18.0307
20.655
18.6886
12.6714
3.90278
14.4523
3.51172
14.443
7.09156
-2.69178
-6.2502
0.0876856
-4.7633
-2.06902
-6.27012
-6.05278
-4.49258
-5.05833
-1.81426
-6.5533
-6.43534
-1.03644
-0.394521
-0.0225436
-0.197682
-2.90814
-0.889845
-2.47828
21.6311
-9.59573
19.0951
5.09486
23.1639
-9.37031
-10.865
-8.88655
-20.2473
-5.96614
-9.42125
-14.2086
-16.558
-7.28647
19.9665
0.820641
25.562
-14.1599
17.2465
-16.2163
-18.0606
-5.75308
-13.0863
-15.0774
-16.4049
-19.6628
-19.4835
-15.3147
19.0441
-27.639
-54.5948
-44.0169
-91.8331
-45.6445
-17.1585
-25.2134
-22.4567
-29.8187
-23.2154
-39.9302
-23.5027
3.0217
-21.1452
-71.6271
-87.7035
-60.8909
-22.2052
-22.5153
-23.9537
-22.972
-49.407
-31.8238
5.43778
32.4362
-0.554813
16.0703
-22.2987
65.4502
-16.8746
-7.93631
-17.9739
-24.2295
-23.4407
-23.4624
-2.31945
30.6694
0.529464
38.3019
-16.4557
29.6021
7.29178
-17.7098
-6.12681
-11.4942
-14.2134
-20.8445
0.19188
-8.43399
28.9533
24.4554
26.4492
31.3205
28.8574
29.4078
27.7238
15.0815
22.6479
10.2503
24.1038
17.9156
23.3737
16.6754
-3.25106
5.7699
-0.837653
6.07911
-3.09316
5.96857
-2.0403
-3.55465
-0.100961
-0.0311157
-5.3971
-5.08849
-3.56634
-2.58774
-1.2398
-0.0736752
-0.163123
-2.98101
-1.70171
-1.36683
-0.933592
25.2824
28.5777
27.4302
9.16981
23.6654
11.8333
-0.526653
6.83974
-1.76471
0.145094
-1.82071
-1.59778
-0.291646
-1.01284
-0.875304
14.5725
1.86605
0.205112
-2.49983
-1.771
-2.24468
-2.2739
0.748812
17.9521
17.7595
15.7822
17.2672
20.7778
19.0047
14.2089
3.6513
15.1517
2.05349
13.749
6.70115
0.150947
-5.22017
0.0691576
-2.32337
-1.26695
-6.35783
-4.58761
-0.594296
-1.84271
-1.76673
-6.47352
-4.62635
0.392499
-0.0663134
-1.47006
0.0984281
-1.45351
-0.306312
-16.7359
15.3458
-22.1291
-12.8341
-23.1311
-77.4462
-55.4853
-17.9284
-22.9617
-25.7012
-21.677
-20.9237
-47.3375
-27.0999
-24.9725
-64.1084
-50.3559
3.03641
-180.102
-59.3468
-24.4063
-31.2609
-22.2901
-28.3466
-45.5353
-23.7679
-69.2008
-163.933
-61.6954
-53.5466
468.149
472.105
-23.4926
-44.1486
-21.184
-46.2217
-22.5276
471.997
-12.2116
-16.43
-11.1028
-18.6798
-10.7971
-7.93236
-3.70561
-5.93124
-2.91039
-7.71959
-2.12967
-5.88679
-0.714116
-209.201
168.969
-236.408
367.894
463.637
379.349
460.782
-57.8233
-174.284
-48.1617
471.825
471.9
467.276
470.468
-21.616
-41.6481
-23.3741
471.735
417.581
469.975
399.092
-12.3676
-20.7095
-11.9375
453.25
-8.3666
479.281
-2.99209
-6.64979
-2.63806
-6.87654
-0.651822
-0.338239
-171.406
145.79
-234.679
380.228
460.573
371.441
460.826
-193.611
-70.3046
466.967
470.175
467.273
471.621
-23.101
-54.5257
-31.0646
469.743
435.888
471.527
388.59
-12.2367
-25.0493
-14.4462
461.766
440.58
-9.94342
-2.58994
-6.83174
-2.49189
-0.487707
-8.44418
-0.427817
-74.8755
-117.718
-84.116
466.801
471.691
461.803
-30.9397
-61.2147
-34.8432
471.61
417.21
-26.3915
-14.5436
-22.6941
-14.6823
453.801
-10.7419
-23.995
-12.295
-3.09612
-7.05294
-3.09516
-8.44847
-0.736977
-8.44887
-1.01751
-95.7452
-56.2574
-66.6557
-80.6621
-208.345
-93.3434
-31.3834
-44.5752
-30.2902
-65.9019
-28.1572
-77.6229
-32.2351
46.7374
68.4392
56.533
127.43
-46.9449
94.4589
42.5579
-38.9633
38.4028
-23.247
-10.2877
-45.3622
-29.9866
-19.7387
-23.7809
-40.3579
-26.2427
-16.5379
-21.5826
-15.0748
-31.2508
-16.891
-21.9988
-15.1452
-12.8415
27.7186
9.23656
8.81209
-17.0965
18.7783
1.33647
-18.5961
-2.64929
-8.80871
-22.1114
-17.8229
-4.50255
-8.04883
27.2911
31.2761
29.137
29.8153
28.907
14.833
23.9859
16.9781
24.4596
10.5829
-0.602952
6.7885
-1.33869
6.25028
1.26621
-1.45526
-3.65369
-3.16124
0.511456
-0.386277
-0.764921
-1.97971
-1.08463
-0.018931
-0.484488
29.0206
27.3199
24.4143
9.55941
7.60986
2.28509
1.18712
-0.970089
-0.433855
-0.485357
15.5165
17.0168
23.8071
24.8896
14.6588
1.9792
17.1338
0.28926
0.40603
-2.49703
-2.72593
-6.45845
-2.08313
-1.77523
-4.71211
-2.58804
-2.07137
0.120104
-1.67551
-0.42977
19.8353
22.1492
20.5386
24.3661
23.8013
24.4808
23.1583
2.30882
15.9367
7.2454
16.8807
3.3804
18.5907
6.64443
-3.40937
-1.34813
-6.53793
-3.21877
-5.34942
-2.29972
-6.29772
-1.22084
-7.66176
-6.2949
-4.74399
-3.78862
-6.35112
-5.88768
-0.350375
-3.03155
-1.6309
-2.34679
-0.968706
-3.40594
-1.60168
-48.3169
-138.129
-60.6479
-134.419
-61.1032
470.523
-22.7414
-48.3087
-27.5921
-41.0724
-28.1415
-23.7888
-58.4591
-52.6644
470.416
474.993
466.646
471.086
-26.6009
-45.3487
-23.5937
475.138
-22.986
469.287
407.338
-12.4914
-20.8763
-10.767
-20.4518
-10.7014
449.114
296.478
-2.64553
-7.48698
-0.955744
-7.46365
-0.735194
288.59
468.15
471.097
466.749
470.237
464.582
467.962
-23.1342
471.271
500.621
467.671
436.32
466.495
449.119
-9.79072
459.013
436.924
294.58
449.018
315.116
-0.715545
-5.59877
-0.298467
290.933
8.05746
250.934
1.44282
470.591
466.165
467.425
462.554
467.131
460.891
465.108
435.073
468.946
381.756
465.974
448.911
465.802
478.059
483.663
339.095
471.965
284.447
476.453
235.938
-0.365021
318.448
-0.11101
237.554
6.34215
281.31
9.93948
466.704
465.885
469.673
460.596
465.025
460.086
464.866
435.795
469.921
427.161
465.782
471.02
464.918
512.578
315.168
447.863
315.155
459.117
288.096
410.172
290.675
-0.152333
-0.168558
276.355
291.302
2.42187
470.451
463.253
472.855
461.679
466.022
462.834
467.05
409.066
472.661
-25.2791
465.651
455.218
466.312
414.603
-23.8569
-10.811
387.621
217.674
438.545
268.29
-0.295092
-8.06153
-0.713553
235.539
7.5399
287.305
6.62675
473.754
-218.633
460.324
468.157
467.111
471.543
-26.7385
-31.0411
468.532
574.909
471.415
447.399
-10.7726
-30.0891
-13.0555
434.455
297.964
428.144
-10.605
-0.837234
-8.66729
-1.86432
284.135
10.6039
-8.36138
-0.453839
-129.989
-93.6281
464.065
471.473
-163.752
-107.052
-52.0768
-30.9909
471.498
445.804
-73.0628
-29.4794
-15.7641
-19.7458
-14.4126
-11.5027
-23.0646
-15.4746
28.9449
35.3118
34.2853
9.78916
27.5831
5.74622
1.63143
1.60096
-2.6639
-0.633696
-1.71553
-0.0354339
-0.674143
0.408552
-0.534783
25.1673
26.3553
24.9433
26.3173
18.6048
-0.714605
20.793
-0.760181
-2.09462
-6.17987
-4.22739
-7.09519
-2.11354
-2.64079
-5.40406
-4.57551
-1.91851
-0.500128
-2.71935
-1.02884
27.8621
27.242
25.7158
27.3235
27.1474
29.4023
30.3666
-0.34414
21.0868
-0.138181
21.9637
-1.64291
23.4059
-6.84984
-7.56899
-5.12878
-8.51997
-5.21503
-9.41566
-9.30497
-8.89196
-3.82057
-6.57066
-4.21777
-6.86073
-4.18528
-5.43511
-5.59067
0.622206
18.0374
0.847145
21.073
-7.0108
14.0752
-9.65983
-4.31793
-11.3839
-9.9149
-10.4589
-23.1959
-1.81465
0.327
-7.64478
13.9033
-18.7913
-0.786234
-33.8384
-14.2321
-13.1728
-15.7596
-17.6448
-24.272
-31.1163
-25.7963
-27.6847
-103.686
-55.8147
-19.9702
-41.1615
-173.368
-57.7913
-21.0045
-35.3791
-26.1661
-37.6908
-28.538
-43.9612
-28.1504
-63.6545
470.734
475.371
-50.8385
468.737
473.763
-26.9617
475.284
-23.0695
-44.0105
-25.3405
473.605
491.345
-11.739
-20.0144
-11.1625
-21.8211
-11.8471
436.045
283.199
-2.06339
-7.60868
-0.826992
-8.39492
-1.08029
283.49
-0.0873416
470.217
444.271
472.567
395.169
472.006
426.36
-11.3384
455.784
291.994
386.587
266.39
412.031
173.871
-0.336677
278.831
281.923
0.245649
274.623
2.37348
452.578
466.837
397.751
472.097
463.915
469.062
485.513
286.695
448.784
276.258
433.939
265.053
475.844
234.286
3.55084
303.141
1.3436
282.842
2.37051
236.321
-58.8584
449.496
466.319
474.878
467.612
579.091
467.364
659.223
293.974
476.062
225.506
455.792
238.631
476.122
303.541
5.76363
278.092
8.43835
151.312
292.665
-27.0717
467.496
465.461
460.738
468.791
506.785
469.116
480.16
265.457
412.946
297.499
468.712
45.1443
473.091
200.546
265.06
1.81425
218.34
-8.46149
420.33
467.02
474.836
468.491
474.297
466.637
463.648
272.476
448.949
280.376
487.102
233.592
420.102
257.961
7.61723
303.467
9.04606
191.638
276.585
0.938894
447.584
470.15
444.176
465.651
251.974
464.595
441.478
270.566
455.644
442.953
184.844
459.027
271.345
9.87306
-0.203472
256.96
1.66111
242.352
8.33449
471.118
-166.98
-99.7345
464.465
464.793
459.668
471.13
460.6
-67.9182
-26.3674
465.07
443.186
470.437
-11.2557
-21.508
-12.4558
460.896
273.156
-19.3291
-10.6792
-0.454593
-8.68408
-1.10341
283.566
6.83628
-9.53127
-1.05765
-101.563
-75.5955
-71.5519
456.809
-115.654
-75.8056
-26.4371
-41.3353
-26.6613
-22.9144
-52.6937
-31.5925
-14.5181
-17.955
-15.1892
-19.9492
-11.0241
-21.8703
-16.1194
-17.6469
20.7813
-1.00355
-39.2205
-54.4944
30.4772
-21.0313
-20.9833
-10.662
-16.5103
-44.9334
-28.9553
-21.0571
-27.6081
7.62105
32.774
9.47746
42.125
-18.1428
36.1561
-12.9174
0.71582
-8.27455
-18.3941
-25.3755
-17.3894
7.9045
31.748
5.16992
33.2185
-2.48349
35.3739
6.29905
-7.83598
0.00372934
-5.27923
-3.37462
-15.6355
1.04304
-6.82938
36.9205
37.6357
37.5126
31.1745
30.226
3.01577
33.2786
8.14055
27.2905
11.0714
-4.95893
3.00619
-4.14659
8.10928
-0.884749
-0.661314
-2.2842
-1.43189
-0.401554
1.64862
-0.0664505
-0.310539
-0.385211
1.08723
-0.0928433
29.2737
27.2496
10.8664
9.01269
0.247667
0.540297
1.84588
1.51808
-0.0667376
23.5855
23.0756
16.0451
19.6527
18.8746
14.7857
4.10417
15.2365
3.80419
15.0866
7.23227
-2.5707
-4.25786
2.42941
-2.63992
-1.6109
-5.34446
-3.48865
-3.95682
-2.27549
-1.41459
-4.89591
-4.12305
-2.51664
-1.6096
-1.05992
0.400889
-2.79424
-1.56859
-1.95276
23.867
-3.40901
16.4245
9.01101
17.0952
8.6122
-7.85916
-7.66506
-11.5144
-1.479
-7.23849
-2.07469
-7.72022
-5.85915
18.626
6.12788
13.9647
-0.419276
-12.136
-4.86947
-10.3005
-10.9797
-15.8838
3.06223
-35.4897
7.27938
-12.8238
-40.5169
-48.3637
-33.8034
-25.1405
-16.0865
-19.9861
-41.7526
-27.716
7.53357
259.585
-192.644
131.276
-61.2746
344.062
466.588
-39.6481
-175.154
-50.2961
-105.104
-62.9193
469.219
473.993
-27.7008
-43.8771
-25.9744
-49.7551
-29.46
473.981
-14.9897
-20.9901
-12.7187
-22.8305
-15.1368
-11.6014
-3.35111
-9.14115
-2.40092
-7.87012
-3.28037
-8.33257
-0.614032
-49.1095
469.211
471.996
469.015
473.712
466.197
470.021
-25.034
472.427
432.216
473.939
456.701
469.863
454.373
-11.792
435.933
280.452
470.926
-11.1674
458.858
216.893
-0.827953
277.907
11.6562
-9.65453
-0.198901
255.99
0.14591
583.019
470.713
462.755
469.847
396.184
469.5
408.013
260.244
446.953
255.8
449.923
264.692
481.392
199.686
4.91171
301.105
285.316
0.894026
264.452
-61.791
421.036
472.676
451.605
470.249
483.93
463.623
529.355
216.42
476.951
249.71
477.884
208.548
445.819
169.959
1.56495
345.244
-20.0463
244.408
340.813
624.703
466.878
627.604
455.892
470.116
449.661
414.243
208.782
473.281
222.693
393.147
173.995
363.354
273.764
-24.9957
236.298
-19.7833
239.396
253.24
393.096
454.745
450.015
453.59
451.151
460.755
451.494
454.763
464.58
458.7
466.727
461.552
454.605
459.668
450.866
507.412
468.594
523.456
449.1
412.925
450.404
399.911
192.999
480.49
70.2318
367.428
270.207
332.99
270.203
191.484
249.422
360.043
269.917
544.459
487.105
469.086
253.56
457.914
423.913
466.101
479.586
224.582
442.075
232.273
325.798
211.051
479.6
244.882
483.401
1.41349
244.748
525.121
272.771
421.817
463.251
442.545
464.827
607.013
462.485
429.263
242.155
454.247
298.783
477.684
234.761
451.873
177.076
-13.5321
255.664
6.7606
320.256
207.104
6.82211
464.784
463.504
470.073
459.129
463.715
464.258
467.391
470.862
469.94
462.317
473.817
467.016
385.293
278.075
-10.6305
452.574
218.042
369.274
273.31
8.09238
-9.57455
-0.636228
240.564
-1.93467
270.734
0.231389
442.569
194.054
-54.1443
358.178
449.6
195.896
-183.746
470.485
-150.493
-76.9784
466.697
470.084
-236.342
-77.9392
-22.6831
-55.703
-30.1864
468.996
362.691
-58.777
-29.0012
-10.686
-24.2964
-13.827
416.619
283.059
-23.0055
-11.5152
-0.957363
-7.68229
-2.80885
-0.105897
-7.19844
-2.77192
-59.6746
53.5575
-154.142
-77.177
18.5028
-23.6783
-31.8477
-27.406
-57.6093
-30.9987
-25.0215
-27.2292
34.7923
-3.66318
29.0554
-9.22093
32.1957
12.1524
-5.16224
-16.209
-14.4286
-23.8669
-4.37038
-12.7986
2.6784
32.6613
8.03825
31.373
18.5488
29.5921
19.5681
-12.2022
3.03417
-5.93747
3.85708
-4.57491
6.26308
-1.07399
34.5347
30.9803
30.7117
34.9671
32.4281
31.8992
30.1305
13.5378
25.8305
11.8965
26.8852
16.6158
25.5662
12.2305
0.198682
9.00904
0.686753
4.8184
-0.0643922
9.27008
2.94891
-2.22987
0.209928
1.56456
-1.30834
-2.3791
2.38008
0.167386
-1.07339
1.19859
-0.671313
-1.65204
-0.918264
0.836048
-0.250594
28.5464
29.3699
27.1636
11.0491
24.6441
13.1596
1.17457
11.7232
2.39133
1.85962
2.1048
0.65717
-0.0689243
0.805175
-0.17936
6.02311
4.75299
-5.16886
-3.93899
-2.20539
-1.33082
0.26227
15.5424
18.6616
18.0916
10.5764
12.7072
18.1778
17.3737
4.29175
15.373
9.75091
13.0599
5.91085
15.103
10.3557
-3.05629
-0.401672
-6.091
2.34751
-4.79497
0.570235
-6.24319
-1.28522
-6.00319
-5.75814
-4.37315
-1.77914
-7.57375
-7.44124
0.256238
-3.11032
-1.42732
-1.32871
0.176964
-3.75581
-1.61513
-69.1258
470.15
474.061
-158.597
-73.0483
470.933
472.979
-28.901
473.709
-55.1631
-25.8999
472.899
471.72
-14.6578
-10.1384
-21.2346
-14.3187
476.686
-9.28446
-3.32749
-7.58019
-0.742906
-7.127
-2.78228
-8.03624
-0.441235
472.739
464.56
468.945
469.885
472.111
464.103
468.014
456.155
469.671
484.823
472.304
467.765
470.028
447.759
-9.72597
458.305
251.196
476.608
327.114
446.401
287.121
-0.208877
216.61
-0.0885115
317.755
-5.18785
443.554
468.995
531.12
470.96
423.556
473.322
408.885
214.046
475.415
259.82
473.104
262.947
483.776
245.426
107.119
-8.28018
323.003
-10.039
259.122
-31.6881
420.26
455.078
476.425
474.516
422.001
448
407.879
262.2
395.1
221.057
494.638
219.907
378.88
272.411
-43.1205