/*--------------------------------*- C++ -*----------------------------------*\
| =========                 |                                                 |
| \\      /  F ield         | OpenFOAM: The Open Source CFD Toolbox           |
|  \\    /   O peration     | Version:  4.0                                   |
|   \\  /    A nd           | Web:      www.OpenFOAM.org                      |
|    \\/     M anipulation  |                                                 |
\*---------------------------------------------------------------------------*/
FoamFile
{
    version     2.0;
    format      ascii;
    class       volScalarField;
    location    "39";
    object      p;
}
// * * * * * * * * * * * * * * * * * * * * * * * * * * * * * * * * * * * * * //

dimensions      [0 2 -2 0 0 0 0];

internalField   nonuniform List<scalar> 
146404
(
-3.95374
-1.61385
-6.86782
-1.73089
-7.54273
-4.19252
-2.11327
0.556292
0.991795
-11.5352
-0.762574
-4.32633
-0.407205
-6.8141
-3.74376
-2.21316
-3.25169
-2.68563
-2.66263
-5.25831
-3.11232
-6.37837
-4.59385
-2.33662
-1.20248
-3.22291
-6.92051
-5.58702
-2.57682
2.83845
-4.33867
-13.136
-7.60213
-2.24758
3.24089
-2.4695
-10.5545
-6.02757
-2.2463
7.79658
6.17863
-16.1232
-2.49148
6.46326
-2.15131
-11.3569
-6.6739
-2.69641
5.12438
-0.561233
-6.32511
-4.90447
-2.50313
3.52639
0.607901
-4.4697
-4.03996
-2.12254
0.745562
1.54798
-3.68524
-3.28597
-1.77987
2.31037
-3.36816
-1.32991
2.45677
-3.75684
-11.9526
-6.32415
-3.19485
6.65803
-3.66582
-18.0545
-9.91436
-3.40137
8.93478
-4.87625
-24.7825
-14.6454
-4.30886
11.1387
-2.39147
-19.3807
-11.6388
-4.68188
17.2844
1.90887
-25.6438
-5.0128
14.8876
-4.69708
-22.1112
-13.6766
-5.36
19.6751
-1.25608
-21.4733
-12.7964
-5.27948
12.9982
1.61825
-12.0096
-9.05958
-3.38945
8.99055
-0.0232119
-9.17391
-4.91664
-2.32354
7.79899
1.3458
-9.06514
-1.01389
3.5228
-5.12954
-1.78946
-1.46226
-1.3668
-3.8264
-8.07833
-5.03455
-1.82025
5.19221
-2.36955
-14.8198
-5.69685
-2.31181
12.7622
1.87172
-23.0585
-5.05159
-4.07534
18.0342
-6.212
-25.9729
-15.4689
-4.54034
25.7093
-23.987
-37.5049
-25.575
-7.12339
39.0415
-29.6334
-42.9772
-23.3568
-9.59873
48.6365
10.5028
-43.0129
-10.6926
39.0336
-23.6837
-50.8203
-28.5674
-9.23495
28.3345
-20.285
-49.0794
-25.6173
-7.53031
28.1325
0.68108
-27.1214
-17.711
-6.48606
20.5875
7.64756
-22.6984
-8.58748
-3.89625
11.1289
2.2307
-11.0574
-6.16153
-2.76452
5.01081
2.16832
-4.10318
-3.77294
-2.01882
2.90228
-1.12939
-2.22741
-2.14933
-2.88239
-4.00015
-6.94687
-5.15529
-2.35105
3.95088
-4.57336
-15.2871
-7.93305
-2.49838
9.84283
-4.62411
-20.6829
-12.9242
-3.98894
31.7986
-1.10294
-40.6051
-14.6138
-5.60589
61.5442
-18.3853
-75.677
-35.2684
-6.44131
109.286
-100.555
-125.421
-49.9274
-11.9244
116.705
-127.532
-147.621
-48.0231
-19.1502
144.791
-136.584
-39.4056
-29.0203
120.522
-135.809
-162.26
-55.6067
-22.4794
97.6194
-81.6366
-125.522
-58.6253
-19.4594
63.9632
-0.060009
-86.2447
-52.8546
-11.7199
37.2818
10.4014
-43.9963
-25.905
-8.69503
16.9393
2.87783
-17.2287
-11.3687
-3.59314
10.6441
1.2526
-8.08769
-6.36993
-2.5072
4.04112
3.07364
-3.09869
-3.84197
-2.14911
-5.87658
-3.92292
-7.28032
-4.31236
-2.24572
2.69902
-5.89248
-11.2624
-7.84822
-2.75515
7.9971
-6.39383
-25.3253
-11.3178
-3.42345
20.7559
-19.4618
-57.7075
-18.3408
-4.41405
66.6606
-123.621
-99.9511
-34.347
-7.23419
150.561
-111.498
-142.661
-50.7459
-14.4805
318.597
442.01
-53.5817
-16.1445
388.317
440.513
442.209
417.886
391.512
437.547
441.484
438.15
314.507
378.544
437.04
440.789
429.124
311.868
434.914
-62.7382
-19.2846
183.52
-72.6964
-21.0843
67.5365
-50.9046
-123.004
-45.97
-10.0497
23.2119
-0.0478679
-35.5741
-21.9134
-5.89245
15.2044
5.46715
-17.7292
-13.7278
-4.02871
9.06071
1.55077
-6.64251
-5.6114
-2.8531
2.21997
2.32074
-3.74521
-2.90024
-2.03285
1.98047
-2.78624
-13.6713
-2.40161
-1.42147
5.69338
-4.93806
-16.8713
-8.26122
-2.36038
14.8963
-7.08201
-29.7861
-14.3987
-4.92684
46.3355
-71.5024
-81.3542
-27.5927
-8.04598
147.686
-82.0004
-133.898
-45.2194
-12.5266
382.4
444.585
444.734
-15.5174
419.871
437.433
440.96
413.139
304.248
421.086
433.924
438.199
446.26
334.151
419.648
432.369
438.349
430.633
286.593
415.596
431.814
436.412
421.288
335.308
396.643
432.045
437.385
406.171
298.128
351.503
437.986
439.415
430.366
-19.6658
170.442
-68.3819
-134.785
-60.9794
-23.4301
43.0428
-24.9676
-71.9785
-40.4382
-8.51377
23.454
4.07068
-26.4815
-17.5008
-3.50847
13.362
4.37101
-14.0346
-8.40999
-2.28737
8.15368
3.35767
-10.4465
-1.92639
-1.38367
2.06905
-3.6579
-11.8049
-5.10731
-2.60345
9.77708
1.10226
-19.7098
-6.44234
-4.00941
30.5203
-20.888
-7.28019
86.8643
-73.8624
-102.456
-39.7252
-14.4888
311.332
-128.314
-40.7438
-14.9576
420.785
438.345
443.043
399.51
281.871
424.521
434.91
442.112
384.612
263.875
422.767
431.709
440.827
438.168
303.75
421.077
428.983
436.912
440.916
216.365
419.875
429.518
438.463
464.38
326.893
414.791
429.893
437.551
354.257
306.859
391.549
432.478
433.828
435.787
316.268
304.592
433.179
438.905
-62.858
-25.7378
86.4472
-62.8099
-151.127
-61.2621
-12.9479
35
69.0824
-52.3165
-5.83318
16.4886
8.84397
-20.052
-9.83168
-3.1841
8.32918
2.51806
-7.94741
-4.40213
-2.42891
4.00943
-4.3284
-2.69485
-1.55069
-2.14816
-5.43929
-3.84628
-2.72118
3.70432
-3.95914
-13.1861
-7.23535
-2.37702
10.5509
-5.74424
-26.4579
-13.0585
-3.75253
32.5531
-24.7076
-45.004
-25.0813
-7.40925
99.1878
-112.433
-152.962
-43.7865
-14.8548
386.427
443.285
445.15
445.011
-14.9106
423.983
437.14
441.864
395.724
270.764
424.427
433.478
440.831
469.495
212.738
422.971
429.614
433.107
302.607
247.58
417.811
425.834
419.467
352.964
251.15
419.005
426.012
427.466
298.082
241.499
418.139
428.648
436.649
451.037
171.064
404.561
429.21
433.996
418.361
256.644
351.849
436.635
439.894
391.164
318.623
125.662
-77.7899
-150.644
-70.32
-24.7727
26.3888
-2.21121
-42.7438
-18.535
-6.48494
16.5621
2.50767
-14.5756
-11.0875
-3.90103
9.9324
4.38737
-6.84756
-6.2581
-2.89564
2.08778
4.14279
-1.69026
-2.5518
-2.4219
-8.75536
-2.00113
-5.1939
-4.05871
-3.13862
3.76059
-3.92729
-13.0333
-7.02031
-2.36188
10.6199
-5.91602
-26.7796
-13.6074
-3.94115
30.4292
-30.6199
-57.6918
-32.9831
-8.16355
120.801
-68.8539
-133.466
-51.8514
-14.8451
392.457
443.954
444.132
427.66
424.386
437.772
442.327
448.284
337.714
425.133
433.982
448.705
458.072
223.361
420.857
429.65
422.306
343.267
269.794
416.101
425.04
411.346
350.111
262.483
415.929
425.676
418.417
347.846
258.459
419.567
429.428
435.553
466.187
221.536
408.275
430.136
435.276
449.429
255.661
359.029
436.201
438.588
420.655
326.387
141.222
-52.2766
-147.73
-68.2986
-25.6325
24.6715
-3.76417
-35.2928
-21.411
-6.77928
18.0432
2.40355
-17.108
-11.4771
-4.00818
10.7226
4.30948
-7.01818
-6.2569
-2.92576
2.45406
4.39753
-1.58979
-3.06171
-2.72333
-1.95422
-5.0544
-3.5819
-2.71301
1.8164
-2.25514
-9.56063
-6.18579
-2.37074
9.9026
-1.61535
-19.1968
-11.6559
-4.59189
35.9556
-11.0018
-41.531
-23.6786
-8.32898
122.023
-125.361
-135.348
-56.4448
-12.2364
380.032
443.318
444.724
419.539
-13.2149
422.035
438.003
441.691
431.598
277.018
425.832
435.442
445.291
447.715
220.866
424.524
431.39
436.707
329.595
245.744
421.448
428.202
425.882
343.156
266.39
422.583
429.06
433.54
338.073
258.997
418.99
432.038
440.243
447.82
144.149
405.284
433.639
436.563
356.167
267.811
342.986
440.767
439.81
431.16
328.046
108.311
-63.4088
-181.452
-75.1535
-14.1223
34.962
0.359235
-43.1867
-27.562
-6.18728
17.2129
5.36626
-15.5599
-12.0274
-3.32046
8.37835
3.19426
-6.25018
-5.35952
-2.90274
1.77042
4.03749
-1.69047
-2.62223
-2.29503
3.6558
-1.8156
-10.9392
-3.65311
-1.73837
11.5441
0.101894
-18.951
-1.74983
-3.40709
29.198
-11.9562
-5.3068
75.2152
-58.7165
-111.017
-46.6883
-11.1638
293.535
-141.871
-61.969
-19.0447
403.302
439.698
442.771
446.34
296.624
422.255
436.644
442.039
437.654
229.16
424.453
434.988
440.725
451.185
338.371
424.103
436.348
455.066
453.915
239.362
420.953
433.727
440.182
439.259
264.192
414.442
433.628
437.935
378.298
260.112
390.976
438.367
437.698
377.501
304.634
296.602
437.361
441.36
-61.0295
-25.1478
64.5844
-72.5637
-111.678
-55.222
-8.43994
26.3802
12.3336
-43.1309
-3.36062
14.0324
10.465
-23.2498
-12.0131
-2.61499
7.4139
5.77199
-10.1595
-6.02558
-2.25402
3.37089
-4.85477
-2.89259
-2.28483
0.375958
-3.98643
-12.9911
-3.98585
-1.86796
4.98056
-4.60786
-12.9764
-7.4416
-2.9792
12.8565
-5.17766
-27.4476
-15.626
-4.85573
36.0026
-32.4776
-62.4716
-28.5422
-7.07719
136.342
-63.7073
-130.525
-63.8123
-17.0506
337.621
445.477
446.412
-19.1057
398.904
440.693
442.228
437.266
268.494
411.791
436.723
440.96
454.695
256.411
413.782
436.738
445.855
365.576
176.76
408.88
436.06
439.565
449.909
265.878
390.87
439.528
438.335
410.897
296.832
343.618
441.423
441.523
351.661
-18.3063
96.2053
-125.009
-121.381
-55.7289
-7.1035
14.5067
-7.55415
-34.0067
-18.4416
-5.62889
8.54756
-3.53678
-24.0857
-14.9065
-3.70448
6.57571
-4.16898
-12.8612
-6.85109
-2.81121
3.74679
-0.69871
-12.1847
-3.26897
-1.67256
-7.6767
-2.98152
-6.38057
-4.08638
-2.33537
0.3868
-3.69772
-7.87867
-5.91868
-2.76298
6.37262
-3.15424
-16.1241
-9.75233
-3.04499
19.3392
-5.80892
-26.5704
-18.8618
-6.1014
50.9306
-39.8747
-64.5623
-35.3301
-6.34573
122.151
-98.0537
-121.01
-65.4579
-18.4546
285.338
442.358
-117.902
-53.5927
-22.5363
358.78
441.538
444.847
401.23
366.543
442.729
445.432
410.67
329.257
357.1
442.596
443.458
429.889
287.197
440.498
-45.7381
-17.6105
98.1489
-47.0392
-8.49495
36.5443
-28.5484
-55.6689
-28.97
-6.12941
8.51849
-3.8274
-18.7615
-10.6416
-3.06948
3.33246
-4.25388
-11.2436
-6.76043
-2.41055
1.45471
-2.69817
-7.87314
-5.54098
-2.50057
-2.41099
-1.70604
-5.9051
-4.00886
-2.37196
-3.6553
-2.8138
-5.58836
-4.2187
-2.04369
1.82291
-2.53547
-9.78531
-5.67514
-2.15153
8.84367
-2.50053
-16.6682
-10.036
-3.10878
24.9171
2.97201
-35.7233
-16.3797
-4.44787
39.08
-22.1639
-50.1333
-25.2976
-6.26752
54.1876
-100.568
-88.7601
-37.2446
-9.38241
73.3699
-154.197
-92.9048
-36.9951
-14.173
81.6319
-163.877
-40.5392
-15.1152
74.9924
-145.113
-104.198
-38.3864
-8.23351
48.7144
-85.9733
-84.1303
-32.7378
-7.01565
32.7515
-15.8497
-57.3716
-29.8096
-5.11429
18.359
-1.65525
-39.2693
-14.5961
-2.98768
6.80777
-2.17934
-15.3169
-9.85299
-2.47161
1.6481
-2.91412
-8.83276
-6.21104
-2.72371
-1.75815
-2.31044
-5.88947
-4.89027
-2.67654
-1.09907
-3.15511
-7.82089
-4.28721
-1.92191
5.31412
-1.4728
-14.2047
-5.80449
-2.27906
9.0119
-0.756687
-19.4735
-4.74301
-3.1543
8.85909
-2.76335
-18.5769
-10.4799
-3.83649
11.3079
-5.28424
-25.1833
-14.0181
-4.20223
24.8085
-8.64666
-33.3916
-21.2128
-4.68346
30.7112
-18.238
-28.9153
-4.77858
12.8045
-13.466
-36.525
-12.9434
-4.28058
8.25687
-4.8508
-21.7628
-11.8861
-3.91523
10.0168
-3.95653
-20.2111
-13.578
-3.49572
7.26718
0.171291
-21.5826
-8.70688
-2.20679
3.15654
-0.823676
-13.8546
-4.61494
-1.86892
-1.4809
-2.44573
-6.96248
-4.4869
-2.43557
-1.94437
-4.49085
-3.52987
-2.53886
1.20818
1.74215
-1.14735
1.23318
-2.47927
-8.53531
-4.7465
-2.33733
3.98895
-2.05483
-9.84381
-6.80476
-2.95423
4.49532
-3.29002
-12.3958
-6.48674
-2.02741
7.92422
-1.84114
-14.8916
-9.60501
-2.15935
11.6643
-4.40519
-12.2451
-2.43445
4.21775
-5.96007
-16.617
-6.43502
-2.40787
4.89343
-4.01213
-10.8685
-6.25688
-2.31089
1.29759
-3.97569
-10.3459
-6.84012
-2.89799
-0.342725
-3.95865
-9.6762
-5.22882
-2.19996
0.703016
3.49043
-16.3795
-7.28271
-1.03874
-8.10304
-1.7323
-1.52967
-6.18212
-1.63376
-5.44203
-3.11807
-1.97003
-2.28569
-1.94128
-4.86305
-4.29256
-2.2963
-0.0572802
-1.83706
-6.81836
-4.76646
-2.18821
1.61465
-2.21672
-8.71379
-4.79693
-2.23174
4.76895
-4.7917
-5.75483
-2.0093
0.664569
-5.24796
-9.82822
-5.44141
-2.35689
-2.40421
-4.46197
-7.32179
-5.37731
-2.4433
-3.83192
-3.6223
-6.55554
-5.22568
-2.6375
-6.03418
-3.1891
-6.39677
-4.06907
-2.26967
-7.05899
-1.15895
-5.92188
-3.28062
-1.99393
-4.37856
-4.93972
-1.28707
-0.805598
-7.6155
-3.27961
-8.32197
-4.30651
-2.18511
-4.03629
-2.78383
-6.10936
-6.57503
-4.77783
-3.98759
-2.55248
-2.14553
-0.0924657
-4.40249
4.7729
-6.59329
-5.38824
-14.1101
-6.94406
-4.94878
-14.5625
-5.72038
-4.06102
-2.44194
-5.05265
-0.896185
-2.10312
-0.157236
-0.857449
-0.0223743
-4.09695
15.1354
1.16658
0.670119
0.00334242
-6.66469
-7.15482
-4.6917
-14.2669
-0.841108
-3.51067
-2.2255
-0.774881
0.0814724
-1.94741
-0.0927749
0.429466
-0.294027
-5.93222
-6.45857
-4.56008
-3.42658
-2.3946
-2.08415
-0.108921
-2.72731
-2.90561
-5.98912
-6.29849
-4.71397
-3.94481
-2.60299
-2.22932
0.0103571
-9.1805
-2.84085
-4.60798
-2.80119
-2.94667
-5.76511
-2.97218
-4.53709
-6.09847
-4.79074
-5.56824
-5.2934
-4.0625
-2.67336
-4.64754
-3.33521
-2.31933
-0.0214755
-2.77464
-0.399723
-3.85299
-2.59151
-1.76534
-2.16201
-2.87316
-4.61261
-2.84019
-5.38328
-5.63455
-5.58334
-6.78285
-6.31531
-4.86828
-3.29641
-5.53554
-3.62284
-2.6465
-0.407219
-2.7991
-0.478075
-7.26731
-1.64854
-1.46209
-1.70625
-0.332962
-0.916715
-1.9006
-5.81248
-2.81456
-5.02691
-2.65116
-6.07959
-5.54642
-6.72962
-5.47052
-7.52933
-6.89797
-8.9477
-8.04298
-3.60195
-3.74422
-2.80059
-5.27808
-3.8197
-5.89552
-4.04896
-2.05063
-0.174169
-2.30402
-0.812997
-2.13427
-0.681626
-1.31721
-0.290288
4.72033
0.838309
0.218017
3.43058
4.76927
-6.71349
-2.26564
-14.3741
-2.76782
-6.7517
-6.96996
-17.0085
-5.85503
-14.6558
-7.4317
-8.69628
-7.1333
-17.8706
-10.1167
-2.83932
-2.10154
-1.45397
-4.53169
-3.81775
-2.76648
-1.16433
-0.431375
-1.14583
-0.424863
-2.41337
-0.919991
-1.13074
-0.643116
10.2598
-3.92526
1.11601
5.42635
14.3435
3.63469
2.73913
-0.291956
-6.35341
5.09057
-0.176799
-7.87121
-7.02186
-5.11583
-11.6856
-8.60594
-7.60182
-0.983492
-3.36656
-2.31266
-15.3976
-2.48469
-5.83109
-3.30368
-0.243503
-1.79574
-0.294358
-1.84656
-0.80272
-2.45821
-1.08109
0.323465
0.253925
2.8516
1.52345
2.21289
1.13443
-5.93597
0.210642
-3.08245
-1.61182
-6.0911
-1.43437
-4.04266
-5.39359
-3.67565
-3.5946
-8.60498
-7.72222
-5.98412
-5.36525
-2.78365
-2.97723
-2.67645
-4.64652
-3.10952
-4.45533
-3.29689
-0.374795
-2.4023
-0.0741726
-2.15551
-0.833929
-2.24436
-0.912751
2.51337
1.47927
1.45778
1.46727
-2.6505
-0.140746
-2.0288
0.770316
-1.8769
-3.20885
-4.4173
-4.8735
-3.34307
-4.10995
-2.54678
-3.87045
-3.05552
-3.68575
-2.80595
-0.00104848
-2.08984
-0.909906
-2.38383
-0.433753
0.989197
1.43255
-1.19996
1.81443
0.88853
-1.66302
1.66734
-1.49923
-3.10326
-3.78507
-2.97688
-3.26952
-3.50791
-2.59792
-2.6977
-2.1391
-2.22774
-0.365605
-1.73268
-0.332682
-1.89892
1.92064
1.82175
-2.35964
-3.09184
-3.2701
-2.89749
-2.11763
-1.89812
-0.247846
-2.20095
18.3568
-0.627538
-1.00372
-0.974704
-0.213584
-7.44003
-2.67045
-0.661066
2.91912
-0.886652
-0.963729
-2.87681
-6.43542
-7.48601
-4.26926
-8.83071
-6.91514
-5.44171
-9.04809
-10.0028
-7.96784
-3.93049
-2.54769
1.68652
-1.78323
-4.04633
-2.46741
-1.99544
-0.302472
-1.36932
-0.352785
-1.83596
-0.759828
-2.69352
-2.39473
-2.15957
-0.638513
-0.783774
0.415045
-0.684589
-5.71625
-3.26516
-5.05394
-3.78006
-7.48564
-3.50234
-6.91165
-5.56668
-6.7192
-6.67361
-9.30748
-8.24875
-9.24026
-8.46534
-2.93467
-4.9214
-3.78899
-5.38727
-3.71717
-6.23521
-4.41502
-0.330576
-2.25928
-0.891628
-2.51806
-1.1027
-2.77737
-1.13945
-7.8547
-6.67251
-17.6469
-2.58627
-10.7156
0.151818
-25.1628
-8.91117
-18.8213
-10.8281
-14.0775
-11.8578
-25.9576
-17.078
0.0461064
-9.13812
1.71589
0.994088
-13.8434
-12.7799
-9.92849
-9.01331
-19.328
-15.3982
-14.2071
2.9428
1.213
1.99917
7.712
5.00886
5.98645
4.85888
2.16615
5.26916
4.61252
6.01477
7.13014
-2.33997
0.348235
-4.68645
3.05633
-10.8881
-3.98337
-7.19738
-6.36459
-11.1042
-5.57248
-2.18748
-4.00126
-2.56726
-1.77129
-2.2219
-0.347612
-1.84954
-0.800338
-1.77597
-0.460562
5.78191
9.93941
5.24143
-12.7174
3.76847
-6.09841
-13.0283
-6.46824
-6.97312
-3.18082
-4.81872
-0.739464
-1.9021
-0.99549
-0.719718
-0.353981
-0.926198
-0.138385
-4.98263
-3.19395
-3.46094
-5.62384
-6.52653
-5.10197
-4.04044
-2.62298
-1.99027
-0.32074
-0.385186
4.73973
-3.33086
-2.66636
0.524909
-0.136223
27.424
-3.81564
-6.2279
-3.32052
-11.3219
-30.1535
-7.61212
-6.31595
-11.8485
-7.31867
2.93326
-1.65444
-3.66736
-2.51654
-3.56836
-2.46865
-1.25969
-0.440017
-1.65523
-0.612683
-1.72707
-0.747031
-2.94509
-11.85
-2.21614
-14.2621
0.00379526
-23.5929
-12.3995
-8.69778
-14.3266
-7.16257
-22.1687
-12.686
-15.3663
0.0967828
-27.0759
-8.05805
-25.5165
-3.64801
-51.3501
-16.7816
-27.6165
-19.5018
-29.0414
-24.2116
-44.3934
-34.6504
0.83963
-17.0306
8.34275
-0.423913
-32.3102
-21.3279
-18.7413
-17.5821
-37.4878
-34.2134
-28.5848
-7.81109
3.9545
-12.2881
6.14141
-16.4277
8.20952
-13.929
-8.114
-12.5217
-6.4125
-18.7727
-14.227
-14.7736
-9.76717
12.0681
-0.433837
4.84645
9.15889
9.52371
5.98258
5.60529
3.55811
-5.07073
5.47944
-9.27505
2.19696
-3.09556
-7.16156
-6.67281
-4.08369
-11.9942
-8.62466
-6.33557
-5.79612
-0.933385
-1.89777
-1.24366
-4.96673
-2.29618
-3.26904
-2.37171
-0.576563
-1.05672
-0.312662
-1.98486
-0.919235
-1.93888
-0.920423
4.51223
4.18173
3.92573
3.03893
-4.3208
2.73789
-2.26232
2.86234
-0.522409
-3.1241
-4.11888
-4.10696
-1.36101
-2.67955
-1.65615
-3.45592
-2.27924
-2.1708
-2.29995
-0.140458
-2.02947
-0.458373
-2.01986
-0.156825
-7.04787
-3.84708
-3.53801
-4.77943
-5.47864
-4.92707
-4.31906
-3.25974
-2.61803
-0.326794
-3.88625
-3.12613
-5.19856
-3.64928
-2.05374
-2.52736
-3.76241
-5.02361
-3.79457
-5.14149
-4.06716
-6.07541
-6.50508
-5.88776
-5.7737
-5.34895
-7.57776
-7.01697
-4.1756
-3.20086
-4.59839
-3.22107
-5.15749
-3.75231
-2.03848
-0.826452
-2.54472
-0.389269
-2.21368
-0.868496
-14.6891
-2.61323
-27.4488
-4.04397
-14.1107
0.589328
-27.3844
-9.91429
-23.9749
-17.5351
-17.219
-14.6451
-28.4421
-19.4592
-24.685
-5.61547
-22.6894
4.17819
-35.2435
-3.93442
-46.8527
-13.3039
-23.6591
-20.9709
-34.8423
-20.586
-51.4915
-35.3783
-44.9864
-4.12511
-60.0856
-123.098
-145.884
-112.795
-141.952
-34.8649
-51.9523
-38.6399
-86.429
-53.1509
-118.372
-43.782
-7.79937
-44.0682
-74.3738
-106.625
-152.475
-41.1727
-44.912
-36.9279
-43.4347
-122.369
-56.2165
-18.6335
6.13653
-20.2104
5.89308
-52.5704
49.1852
-25.8791
-22.9697
-19.9577
-62.9606
-50.8078
-46.4058
-21.2535
6.79611
-13.3855
19.5598
-42.897
7.23889
-14.049
-15.3756
-15.8995
-12.0891
-40.2816
-35.6604
-18.3599
-18.3168
4.90098
-2.45479
3.21833
7.35308
5.66335
4.48338
4.23435
-1.00609
2.73111
0.0458332
2.73528
-1.60581
2.90003
0.310855
-4.7611
-1.62496
-2.87536
-5.72713
-6.18612
-3.45685
-4.3947
-2.78273
-2.3689
-2.4984
-5.55059
-3.914
-4.20707
-3.4733
-0.903435
-2.13371
-0.348707
-2.70758
-1.21106
-2.32648
-1.0248
3.01187
2.8697
3.32535
-0.223941
2.88998
-0.325555
-2.57306
-2.37443
-3.52915
-2.37488
-3.59604
-2.7447
-0.0927242
-2.27981
-0.384978
-4.05599
-6.59153
-6.80059
-4.68402
-4.21273
-2.31961
-2.42681
0.364632
-5.64246
-3.69115
-9.40079
-3.69242
-2.19013
-3.19235
-3.77249
-5.14382
-3.78417
-6.40159
-4.3821
-6.01264
-5.78852
-5.32619
-6.61849
-4.75714
-7.20815
-6.52941
-4.56447
-3.12964
-4.24894
-2.3958
-4.74198
-3.37979
-2.51852
-0.365855
-2.22103
0.139848
-2.01335
-0.72199
-40.9274
-6.21585
-63.8176
-36.6775
-73.2311
-93.3775
-148.203
-26.8278
-63.4366
-50.316
-67.2822
-43.1881
-131.82
-65.8002
-78.8433
-114.002
-144.26
7.40855
-97.6549
-164.639
-54.327
-120.429
-78.0728
-69.6183
-149.446
-72.6062
-146.624
-100.702
-174.256
-152.724
440.874
443.579
-84.6202
-148.582
-65.4391
-144.391
-69.546
442.802
-25.7403
-45.993
-27.9791
-49.3162
-22.4485
-22.2098
-3.4421
-13.8767
-4.36706
-16.9973
-5.95138
-15.7521
-2.37229
-102.758
142.661
-191.959
341.326
436.463
352.109
432.907
-177.185
-190.546
-153.272
442.078
443.337
439.84
442.176
-59.9636
-129.392
-41.587
442.574
395.165
441.74
372.745
-32.0158
-37.9203
-33.4709
425.25
-22.5316
449.801
-6.25064
-27.5475
-7.85082
-18.4507
-2.93907
-5.68563
-143.957
125.812
-158.493
352.489
432.498
345.046
430.61
-163.932
-188.015
439.218
441.783
438.747
441.59
-41.2831
-153.684
-61.1953
441.406
408.675
441.213
366.543
-32.8108
-49.4789
-34.5558
434.614
412.338
-30.0028
-9.50793
-23.4959
-10.3973
-6.62936
-27.3022
-10.6719
-191.878
-76.6101
-157.697
438.999
441.716
436.862
-70.9062
-146.462
-89.3685
441.201
392.014
-72.9089
-33.8943
-55.5649
-36.6997
423.434
-29.947
-62.411
-28.0967
-8.66968
-19.5526
-5.61278
-27.4465
-8.153
-20.8433
-2.92828
-130.758
-76.2969
-127.686
-133.484
-49.8873
-139.484
-96.6254
-125.916
-94.1362
-129.492
-79.8904
-148.714
-88.5305
41.7394
53.022
40.8489
109.883
16.3026
75.0641
27.7972
-76.2508
23.6353
-58.9847
-19.3829
-95.6864
-64.8821
-52.8939
-51.7259
-104.519
-81.1412
-29.9575
-45.9887
-24.3331
-78.0478
-41.8125
-62.4765
-32.641
-35.4595
4.67393
-16.4959
-14.2662
-49.9189
-1.68977
-28.3945
-38.67
-24.8697
-27.7217
-62.8468
-56.3277
-36.5147
-37.3681
3.61689
6.19365
4.73316
2.84558
3.34112
0.500124
2.5978
-0.823579
2.52109
-1.23243
-3.88434
-4.54679
-5.04517
-2.81049
-3.55457
-3.07671
-4.43989
-3.34678
-2.91919
-2.26047
-0.892135
-2.1687
-0.892315
-1.83089
-0.439039
1.56859
3.10006
2.70181
-1.83278
-2.78643
-3.17149
-2.44351
-2.07489
-2.04504
-0.205669
-10.0551
-4.38209
-2.48778
-0.339544
-4.39297
-6.96688
-4.75376
-11.6303
-7.1862
-4.35382
-11.7029
-5.37374
-3.96504
-1.95795
-2.27223
-1.79452
-3.06986
0.185461
-1.43664
-0.309432
-3.4804
-1.15226
-2.25075
-1.08034
-1.62509
1.11448
-1.00883
-7.00173
-4.93876
-7.60921
-5.68602
-10.4995
-5.76623
-10.1446
-5.57312
-8.99655
-7.9075
-10.538
-7.80446
-11.2808
-9.33005
-2.64299
-5.46332
-3.80128
-3.26717
-2.35047
-5.22393
-3.44233
-0.336218
-2.30916
-0.901147
-1.62814
-0.660756
-2.25598
-0.948498
-148.394
-132.383
-160.124
-81.69
-179.455
444.895
-60.6353
-134.599
-66.2497
-130.023
-73.3309
-58.3184
-154.862
-159.993
444.919
445.421
439.147
443.28
-63.9022
-152.246
-63.5972
445.263
-54.8171
441.527
381.045
-22.2931
-53.3517
-23.1535
-44.8917
-20.7401
430.903
320.153
-4.93636
-16.8854
-2.42805
-15.0209
-2.70608
316.39
440.454
443.477
439.671
442.278
436.931
440.396
-64.2137
442.703
469.173
440.272
412.06
439.321
421.298
-22.343
432.275
412.592
316.471
424.672
348.824
-2.96412
-14.2964
-1.67592
318.092
19.4161
278.21
6.46952
442.79
438.782
440.487
434.245
438.971
433.431
437.578
410.122
441.824
352.018
438.889
418.976
438.005
448.827
457.441
360.39
447.781
314.07
451.534
247.799
-2.727
337.799
-4.28545
247.945
3.45947
306.478
2.59773
439.652
437.873
441.139
432.567
436.898
431.903
436.635
412.115
440.45
398.208
437.964
440.667
436.054
481.591
329.78
418.199
329.364
431.134
299.832
376.706
294.614
-5.56483
-7.28001
299.23
299.537
3.82046
441.278
436.571
440.951
432.852
437.172
434.962
438.12
380.726
440.391
-71.6473
436.628
421.434
436.226
383.94
-60.0878
-25.3642
357.679
223.399
417.835
280.423
-7.74831
-20.808
-2.90197
238.483
4.22753
316.442
-7.25493
440.836
-53.2565
432.695
438.604
438.269
439.892
-74.5087
-86.7894
438.164
557.857
439.144
417.465
-26.1037
-77.0369
-28.5993
411.618
327.771
402.437
-24.5336
-3.19328
-22.9172
-5.45735
307.251
-16.885
-20.0764
-1.08046
-115.01
-139.374
435.863
440.163
-59.6038
-128.411
-132.499
-103.532
439.645
417.089
-127.064
-95.0106
-34.9211
-64.9678
-40.0849
-26.1022
-64.5525
-46.5082
3.46688
6.61323
5.87962
-2.13864
2.54317
-7.69672
-3.74797
-8.61673
-5.07392
-2.19004
-2.40052
-1.326
-0.365156
-1.42799
-0.407983
-0.702722
0.588263
0.562777
1.68007
-4.08342
-14.0898
-0.824735
-11.6707
-13.4401
-3.85199
-12.1596
-8.12984
0.28934
-1.5464
-4.52734
-2.1511
-1.12876
-0.33266
-1.77176
-0.572126
1.63985
3.62299
0.546572
3.32955
2.84062
6.2298
6.03416
-13.8595
-4.1612
-15.4974
-0.665737
-12.0596
-1.48026
-19.7605
-5.0694
-15.4974
-10.1241
-12.7106
-9.35194
-20.9156
-6.22005
-2.28506
-7.35866
-2.88785
-6.64069
-2.28632
-0.674429
-3.4178
-16.4039
-6.22731
-21.5468
-3.40284
-21.7667
-7.26171
-12.593
-23.6475
-19.0522
-22.4713
-6.66158
-30.0165
-25.5161
-22.8003
-41.7857
-7.3062
-46.7274
-29.4779
-88.044
-25.9146
-42.849
-33.7047
-43.5281
-34.6123
-81.1689
-44.7059
-107.062
-145.284
-163.808
-65.4722
-113.886
-134.262
-165.966
-50.1717
-125.751
-71.7228
-98.2955
-59.5537
-128.719
-59.0745
-162.991
444.96
445.891
-152.704
440.245
444.613
-61.2501
445.561
-54.7892
-133.513
-49.8214
443.936
466.419
-22.1105
-44.1982
-20.3668
-38.3636
-20.1314
413.921
300.223
-3.66991
-15.6246
-3.65859
-15.0939
-2.85324
313.316
1.46133
442.615
423.515
443.364
377.589
442.905
388.322
-19.8523
440.095
316.924
357.346
276.612
384.735
155.796
-3.62362
306.178
309.363
-6.61121
286.774
-0.459202
429.87
439.528
365.424
442.907
416.99
440.155
462.956
312.034
423.823
303.813
427.482
272.147
446.571
246.137
4.40497
338.042
5.93388
289.024
-1.68091
227.368
-83.9104
419.572
438.096
446.553
438.865
566.721
437.867
630.57
322.845
450.109
225.291
432.932
250.46
440.196
286.295
0.583173
305.136
5.25699
106.895
279.226
-37.6641
436.364
436.088
421.387
438.797
476.094
438.162
435.323
274.181
369.378
306.825
435.911
12.4469
444.817
197.74
270.434
-0.717047
200.217
-69.7106
380.606
436.953
448.621
437.739
454.905
437.426
426.479
278.201
428.902
300.877
458.651
238.682
392.398
239.777
2.21515
339.516
-5.81908
174.2
274.459
-1.13625
417.493
439.113
415.301
437.046
215.785
435.293
416.686
295.234
423.838
408.45
161.125
437.18
288.644
-24.5444
-0.11949
279.08
2.50227
258.953
5.29016
440.152
-53.5221
-133.597
436.369
436.396
434.349
439.93
426.637
-129.694
-84.5775
435.863
417.018
438.842
-24.9788
-64.9625
-33.6435
437.951
289.15
-65.2168
-31.9262
-0.891712
-24.5794
-2.96877
318.843
0.808792
-26.5892
-3.8647
-137.702
-102.694
-166.002
433.358
-96.2473
-196.504
-95.4707
-146.478
-102.507
-75.7233
-173.123
-90.8007
-39.5089
-60.8394
-39.6813
-66.0725
-36.1849
-55.0372
-40.5787
-60.4981
-2.11386
-29.319
-64.4719
-144.879
8.85662
-56.0759
-60.2616
-39.3529
-39.0684
-123.567
-64.7516
-53.5668
-46.6324
-17.5296
3.02403
-13.4241
18.0844
-49.0553
10.4307
-23.9405
-15.6263
-13.6874
-46.2881
-37.6436
-23.3365
-12.1016
5.86572
-9.39414
5.62552
-26.2105
8.02449
-11.4208
-11.6375
-9.91208
-6.33683
-23.7372
-18.7994
-13.5861
-9.23713
8.30246
9.03951
9.38541
1.44963
5.89217
-10.5379
6.56611
-8.18506
4.62547
-4.59591
-6.04578
-10.2363
-7.95612
-6.24735
-4.44293
-0.813662
-5.47433
-1.17588
-2.38166
-1.22138
-0.753287
-1.27516
-0.735328
-0.998527
-0.398062
5.57917
4.44576
-4.07774
-4.96138
-3.68419
-2.71121
-1.51065
-1.24863
-0.2484
0.0796103
-0.218024
-2.10487
-1.10997
-1.24139
-3.58546
-7.34843
-2.0711
-5.08065
-2.98828
-5.85871
-8.94957
-7.40476
-5.61663
-4.58398
-8.08218
-7.19259
-3.94075
-2.49796
-3.87854
-2.96915
-4.95459
-3.58595
-1.76693
-0.776226
-2.58834
0.205709
-2.32843
-0.975329
-11.2232
-1.03342
-15.4973
-2.44067
-6.83054
-2.76441
-9.29584
-9.88928
-16.1489
-10.1026
-10.134
-9.5491
-13.5121
-11.8018
-18.4397
-1.54733
-13.0919
-5.37662
-21.4367
-11.1447
-18.7965
-17.0839
-26.3474
-22.3055
-31.2839
-95.1865
-9.72752
-38.9513
-64.5433
-119.511
-88.086
-41.4926
-40.0356
-31.3293
-97.9375
-50.1878
-28.2749
239.045
-132.986
116.547
-90.6971
316.622
440.006
-114.069
-143.118
-157
-127.363
-156.366
443.323
446.148
-50.621
-135.518
-53.9577
-129.083
-55.531
445.526
-28.595
-37.0079
-21.2404
-44.5273
-30.0071
-22.7065
-4.53367
-16.144
-5.86301
-13.6332
-4.30127
-15.7409
-2.15278
-151.133
442.218
443.73
443.803
446.049
440.247
443.105
-49.5149
443.476
408.811
445.164
428.867
442.106
428.637
-19.45
413.178
299.791
437.258
-19.2609
435.107
224.363
-2.49567
300.597
11.2508
-15.6669
-1.06698
277.486
-0.232646
563.946
441.623
431.973
442.093
363.574
441.529
365.873
273.795
419.945
258.022
423.467
285.165
452.45
115.133
3.49295
319.019
316.634
4.08513
258.404
-102.361
389.251
443.246
425.001
441.803
444.417
436.559
504.741
199.544
446.7
256.424
444.523
177.022
414.323
170.058
-0.160687
382.637
-39.8385
217.889
341.022
591.051
437.058
605.121
434.305
446.789
426.907
382.232
206.495
442.195
217.678
352.303
170.517
346.621
266.07
-42.4723
238.179
-30.3316
236.391
259.213
468.303
424.223
420.031
423.54
419.269
424.046
419.827
422.338
435.513
428.942
435.804
426.35
425.358
426.651
429.896
484.013
437.503
505.393
427.128
381.96
427.526
362.073
182.861
462.381
77.5553
347.646
267.21
281.687
261.127
178.496
260.345
430.495
255.183
661.05
465.638
439.166
215.779
431.414
400.696
435.301
440.482
215.538
403.758
222.146
274.506
210.053
449.625
245.055
394.999
1.81839
225.825
625.796
264.851
386.658
434.478
417.905
435.864
560.593
434.576
406.663
195.997
434.08
329.046
448.49
240.545
430.755
204.059
-20.5495
285.558
-2.03026
314.063
236.965
-3.11246
436.005
437.101
439.489
430.907
434.823
436.67
438.262
445.712
438.694
434.076
450.521
437.355
365.281
305.209
-31.5377
430.937
233.667
348.384
298.723
-6.14728
-26.5861
-4.62477
261.18
-21.3049
300.526
-6.80965
422.233
170.771
-27.571
334.889
425.183
189.39
-74.8967
439.652
-126.321
-203.397
438.439
439.835
-88.6398
-187.264
-68.9271
-174.674
-69.432
438.668
332.655
-168.927
-81.0518
-34.5635
-61.6397
-41.0141
395.365
304.91
-68.1325
-39.6872
-3.88749
-25.0645
-8.37867
-9.87139
-27.8965
-9.38188
-164.651
31.7056
-81.3314
-174.52
1.6368
-70.0636
-69.0438
-49.0668
-159.816
-93.18
-77.8029
-56.9086
9.81055
-25.6668
8.74044
-41.1883
2.60055
-16.2787
-24.6132
-20.9066
-46.7998
-38.0272
-24.876
-24.8328
-16.5605
4.94998
-9.18448
4.72182
-7.69594
4.13698
-4.13667
-15.4607
-11.0899
-9.43271
-15.3787
-15.7951
-10.4785
-10.8899
7.35429
1.6203
5.46373
8.59446
6.98816
4.09355
4.70816
-4.23724
3.57022
-3.55241
3.31679
-2.2336
3.65541
-0.692418
-7.35572
-5.14394
-4.52131
-6.49241
-6.87395
-2.53347
-3.83906
-3.14996
-2.99687
-2.00561
-5.33798
-3.9004
-3.36275
-2.79809
-1.22668
-1.62476
-0.4297
-2.47488
-1.06423
-2.31845
-0.403468
4.97468
1.24484
4.53651
-3.47959
4.04197
-0.942388
-3.55185
-1.95484
-2.86912
-1.81004
-2.62722
-2.61259
-0.267159
-2.36433
-0.235601
-4.31223
-5.0945
-4.02915
-3.54656
-3.59739
-3.23043
0.232799
-2.13964
-0.551381
-1.1198
-8.75006
-2.07725
-0.286078
-0.984319
-4.89597
-2.51087
-5.2578
-2.00671
-4.37391
-2.35652
-4.93228
-4.54026
-7.96912
-7.29425
-5.34225
-4.74806
-7.74295
-7.26101
-3.09461
-5.56258
-4.09963
-4.05251
-3.76573
-5.78754
-4.39831
0.161386
-2.58465
-1.05724
-3.10901
-0.351408
-2.82222
-1.12515
-179.517
443.878
446.026
-65.7739
-155.474
445.227
445.455
-58.0061
445.366
-136.753
-70.21
445.031
437.936
-26.0456
-21.672
-52.6724
-22.261
443.223
-18.0363
-4.67299
-15.5357
-2.18904
-15.0133
-4.07782