/*--------------------------------*- C++ -*----------------------------------*\
| =========                 |                                                 |
| \\      /  F ield         | OpenFOAM: The Open Source CFD Toolbox           |
|  \\    /   O peration     | Version:  4.0                                   |
|   \\  /    A nd           | Web:      www.OpenFOAM.org                      |
|    \\/     M anipulation  |                                                 |
\*---------------------------------------------------------------------------*/
FoamFile
{
    version     2.0;
    format      ascii;
    class       volScalarField;
    location    "65";
    object      p;
}
// * * * * * * * * * * * * * * * * * * * * * * * * * * * * * * * * * * * * * //

dimensions      [0 2 -2 0 0 0 0];

internalField   nonuniform List<scalar> 
146404
(
-8.02215
-3.71136
-11.904
-7.6087
-13.2498
-8.12644
-4.11604
-4.09621
-7.54096
-21.3198
-2.39048
-8.62004
-5.21526
-11.8223
-7.06506
-3.52262
-8.50253
-6.96101
-4.29967
-10.7111
-8.70551
-11.7952
-8.41053
-4.11503
-6.66207
-8.6676
-12.3283
-10.1472
-4.47227
-2.86189
-9.02958
-19.519
-13.0591
-3.98469
-2.06019
-8.11554
-16.6497
-10.9991
-4.13421
3.09461
-1.78702
-20.9942
-4.03479
1.87019
-7.0606
-16.5437
-11.2123
-4.40384
-0.0205523
-5.47809
-11.7094
-10.2884
-4.98172
-1.40486
-4.29527
-9.91026
-8.8749
-4.20236
-3.54777
-3.74428
-8.90318
-7.11831
-3.81899
-3.94696
-8.06911
-2.95636
-3.30732
-9.2663
-17.8212
-11.6296
-5.40195
1.32699
-9.91347
-24.8095
-18.1714
-6.06483
3.70007
-12.5344
-34.3971
-24.2887
-7.20177
6.06794
-8.97918
-27.2836
-18.5561
-8.62909
13.0887
-7.85384
-34.4766
-9.10092
10.5426
-9.22696
-28.186
-25.5573
-9.88255
12.5848
-7.04172
-28.5252
-25.3724
-10.3461
7.25667
-2.88904
-17.3694
-16.834
-7.18094
4.9301
-4.82247
-14.6924
-9.70195
-4.92955
5.02287
-4.30122
-12.0413
-2.32896
0.952551
-8.77645
-4.98205
-2.64331
-8.62914
-11.2855
-15.1957
-9.52513
-3.55988
-1.93124
-10.2191
-22.791
-11.7858
-4.66603
6.31097
-3.28863
-29.3638
-11.2547
-7.88167
11.8016
-12.7992
-34.3654
-27.6982
-9.05346
21.1806
-32.7398
-54.5548
-47.6008
-9.89596
35.2463
-33.5665
-69.5434
-41.0997
-10.6494
46.5856
-0.393408
-78.4364
-11.8047
36.9482
-24.6149
-71.5494
-53.2016
-14.7103
27.1906
-22.8359
-58.9236
-56.1265
-16.1985
23.2523
-5.27627
-35.0818
-39.3009
-13.8246
17.3923
3.20895
-28.1465
-15.2048
-9.3844
9.17976
0.495613
-14.7383
-11.163
-5.79363
3.38861
0.223748
-7.11171
-7.11195
-3.97854
0.988606
-3.88205
-4.95086
-3.5482
-10.3729
-11.4
-13.81
-9.96888
-4.25645
-4.22347
-12.2814
-24.5461
-13.6155
-4.34069
1.99581
-13.8066
-32.1009
-21.9175
-7.83335
24.0535
-11.3618
-57.2977
-26.1154
-11.5593
55.2319
-24.1204
-95.9548
-90.2642
-12.7175
97.7347
-86.3341
-160.133
-115.991
-16.9587
112.76
-105.04
-189.544
-119.742
-21.4281
142.532
-100.438
-126.315
-26.8888
118.316
-105.909
-172.695
-143.721
-38.6378
95.3303
-74.3821
-132.845
-158.919
-41.4716
59.5271
-7.35001
-92.1271
-171.836
-28.4307
35.0341
9.07216
-50.7359
-51.154
-16.7837
16.6412
1.0359
-21.0142
-21.8968
-9.08033
9.33589
0.36226
-11.3091
-11.507
-4.95091
3.05627
1.71998
-5.63296
-7.19384
-3.88349
-13.0495
-11.2924
-14.1861
-8.6694
-4.01009
-5.13087
-13.4693
-18.592
-13.9231
-4.75863
-0.701563
-12.4424
-38.5189
-20.464
-6.26979
13.6568
-28.129
-94.1038
-35.0626
-7.73954
59.5327
-96.8355
-182.828
-90.2073
-13.2134
140.084
-91.7179
-163.795
-155.937
-13.9658
308.534
434.624
-108.888
-10.997
380.544
433.24
434.535
409.527
383.861
430.045
433.908
428.103
307.173
370.715
429.397
432.882
421.216
302.95
427.636
-133.768
-33.9634
174.588
-176.698
-56.3314
68.0017
-35.0044
-92.5331
-125.757
-31.6566
26.0627
-2.91477
-44.088
-50.3883
-15.258
14.8809
5.77893
-19.118
-24.6163
-7.94361
8.4278
0.755855
-9.24369
-9.46678
-5.26158
1.58723
1.08438
-6.06189
-5.22182
-3.20762
-4.63916
-10.2984
-20.806
-6.87494
-3.07953
-1.45966
-12.9581
-24.9909
-14.0562
-4.54627
6.63286
-15.1911
-43.5621
-26.4551
-8.88998
38.8484
-77.5727
-130.456
-53.2826
-9.04786
130.125
-105.923
-227.961
-112.757
-10.5452
373.466
436.384
437.309
-8.14832
411.911
429.648
433.349
405.236
304.808
413.08
426.165
430.813
436.697
332.037
411.685
424.602
430.903
423.525
283.584
407.807
424.178
429.055
414.943
332.579
389.077
424.597
429.875
397.979
294.904
345.191
430.195
431.734
422.843
-44.0904
170.979
-64.4013
-111.406
-143.609
-63.2395
50.8974
-19.7146
-84.1602
-97.6501
-22.0557
25.4787
5.4321
-29.218
-29.5951
-9.92256
13.4893
3.9579
-16.8854
-13.3752
-4.83971
7.74847
2.15292
-13.2007
-3.86497
-2.94929
-3.62923
-8.71057
-17.4854
-9.67438
-4.39749
3.96358
-3.73845
-26.7436
-12.4225
-6.3036
24.9745
-32.11
-11.4452
82.6341
-80.9097
-166.956
-71.8708
-13.5234
303.423
-199.467
-98.9167
-7.0386
413.099
430.74
435.527
391.265
275.707
416.382
427.074
434.578
378.51
262.087
414.391
423.333
433.225
430.55
334.577
412.429
420.483
429.053
430.572
212.628
411.715
421.449
430.823
453.31
312.077
407.39
422.367
430.199
349.666
297.77
385.212
425.177
426.568
427.955
314.589
301.795
427.101
431.383
-150.427
-46.4094
92.5641
-31.2689
-124.738
-163.245
-24.0832
38.1729
73.628
-108.967
-13.3799
17.2311
9.78775
-22.637
-15.4401
-5.85096
7.88987
1.66454
-10.3341
-7.25556
-4.14301
2.80342
-6.37689
-4.68896
-2.74871
-7.32119
-10.3388
-7.90933
-4.37622
-1.65978
-8.1971
-19.0058
-12.3855
-4.16694
5.44852
-11.7011
-35.8205
-23.3429
-7.67644
28.7313
-29.7802
-63.0946
-42.9223
-10.8078
94.8339
-80.6224
-166.877
-92.4742
-26.0998
379.618
436.303
437.338
437.832
-15.8861
416.449
429.631
434.459
387.586
261.777
416.351
425.301
433.097
458.445
173.124
414.063
420.455
424.448
296.576
237.309
407.997
416.454
412.828
335.39
256.612
409.637
417.276
419.249
291.593
228.523
410.36
420.817
429.345
439.073
172.23
397.684
421.906
426.913
411.697
257.265
346.947
429.454
432.317
385.183
315.281
127.881
-55.2774
-111.349
-156.195
-54.0955
29.8034
1.06081
-52.3435
-43.2825
-14.4057
15.6342
1.18176
-15.939
-18.4798
-7.7843
8.6274
3.3684
-7.96727
-10.3758
-5.00612
1.09108
2.65335
-3.52809
-5.17424
-3.52619
-13.926
-7.10094
-10.0833
-7.92344
-4.08236
-1.33903
-7.96561
-18.6154
-12.3979
-4.24029
5.87819
-11.9926
-35.8938
-23.7902
-8.03479
28.8409
-35.6529
-76.2167
-51.4366
-11.2653
116.674
-66.6376
-161.764
-108.877
-24.3371
385.196
437.199
436.943
420.007
417.073
430.441
435.426
440.989
340.212
417.178
425.646
441.521
447.487
197.875
411.906
420.72
417.852
331.6
276.72
407.57
416.532
403.442
336.811
264.498
405.669
416.804
411.593
332.617
260.344
411.551
421.301
427.348
454.011
207.668
400.87
422.582
427.909
440.431
260.89
352.503
428.86
431.053
414.81
318.59
138.603
-59.9156
-120.009
-151.872
-45.1655
26.7967
-5.37201
-46.8633
-46.9785
-15.0016
16.3728
1.60785
-18.4203
-20.3
-8.45693
8.70993
3.38599
-8.22842
-11.303
-5.19984
1.01927
2.54455
-3.77592
-5.6147
-3.79329
-6.97313
-9.88372
-7.34862
-4.3064
-3.21187
-6.9388
-14.784
-10.7985
-4.119
5.28775
-6.42508
-25.837
-20.0232
-7.11663
32.2348
-13.8894
-56.0509
-47.3824
-11.5517
121.502
-68.6527
-152.785
-139.558
-21.7233
374.116
436.415
437.546
413.441
-15.9291
415.07
431.2
435.134
426.509
278.043
418.275
427.916
438.194
439.05
202.824
416.099
422.81
427.105
325.916
234.061
412.545
419.294
416.973
332.498
270.106
413.818
420.074
423.718
330.905
261.494
411.036
424.047
432.5
438.96
143.74
397.561
425.677
429.083
351.193
264.963
336.375
432.714
432.693
421.539
319.549
107.239
-53.1743
-112.566
-161.234
-19.0863
35.4321
3.00459
-54.4891
-65.5622
-12.154
16.2498
4.85761
-17.9524
-20.2044
-5.85187
6.51403
1.81569
-8.63678
-9.37027
-4.94739
0.0601318
2.01472
-4.01177
-5.77631
-3.69347
-1.32119
-7.08105
-16.3946
-7.55097
-3.50968
6.73388
-4.98309
-25.9071
-6.93653
-5.98659
25.248
-17.0867
-8.81919
72.7211
-48.6357
-145.233
-123.544
-16.4017
286.157
-145.531
-134.803
-16.8107
396.558
432.872
435.888
437.635
293.506
415.209
429.565
435.132
432.343
226.373
417.389
427.946
432.913
448.089
323.73
417.051
431.397
438.939
442.709
228.248
413.275
426.007
432.63
429.457
259.432
406.654
425.961
430.346
373.581
261.185
383.128
430.386
429.962
372.455
300.297
289.57
430.814
433.221
-144.544
-23.8003
62.404
-51.3014
-159.272
-148.416
-14.3265
23.6753
0.28929
-65.5165
-8.94253
10.9487
11.7147
-26.5093
-19.3814
-5.33776
4.56394
4.67894
-12.939
-10.2344
-4.17747
1.20502
-7.49844
-6.04565
-3.43555
-4.70064
-9.26818
-18.7882
-7.85414
-3.30492
-0.262293
-10.0456
-19.5527
-13.3393
-5.44292
7.76149
-12.4411
-35.8062
-27.8985
-7.55588
34.055
-38.2295
-94.3308
-63.8765
-10.8269
125.205
-72.1135
-143.749
-140.137
-23.1772
331.611
438.424
438.937
-22.861
392.556
433.352
435.156
429.342
265.464
404.742
429.331
433.591
446.606
253.455
406.544
428.77
437.655
358.037
170.41
401.273
428.29
432.018
440.83
263.568
383.009
431.782
430.744
402.708
290.574
335.135
433.565
433.982
340.572
-18.2607
90.3136
-104.703
-192.246
-144.517
-13.9333
7.66235
-16.8394
-51.5544
-35.4119
-11.0195
2.17606
-9.60374
-35.9281
-27.3754
-7.32441
0.818742
-10.9418
-20.8288
-13.0359
-5.44904
-1.18354
-7.8408
-19.5768
-7.55442
-3.53427
-12.7443
-8.58767
-11.8328
-7.93948
-4.091
-4.90291
-9.03632
-13.583
-10.5633
-4.68744
1.13208
-8.71386
-23.0586
-15.8402
-5.2675
15.2046
-11.2307
-38.6408
-36.1199
-9.62353
49.5147
-39.6197
-116.286
-88.2633
-13.9712
121.424
-70.3756
-138.028
-146.972
-31.5626
282.269
435.013
-132.099
-121.041
-26.9509
352.919
434.764
436.954
393.31
360.566
434.991
437.564
402.105
319.613
349.78
434.368
435.709
422.02
280.564
433.87
-128.734
-22.6856
92.7165
-167.789
-14.5113
30.7221
-37.9426
-92.7276
-63.2239
-10.6505
1.82948
-10.796
-30.0942
-19.5353
-6.17769
-3.35032
-10.8801
-18.7142
-12.7334
-4.85477
-5.01327
-9.30383
-14.7668
-10.9754
-4.83801
-8.39996
-8.47133
-12.5835
-8.61565
-4.16087
-8.87534
-8.18338
-10.9572
-8.41392
-3.7065
-3.44894
-7.95003
-15.4999
-10.4958
-4.12124
4.04469
-8.19175
-24.1478
-18.6215
-6.09621
21.0069
-2.43895
-47.2931
-27.3715
-8.9477
36.2455
-26.6417
-89.2853
-58.4321
-11.7605
52.4727
-71.9361
-149.264
-86.9635
-13.5733
73.3734
-124.614
-161.102
-89.9767
-21.8743
81.034
-126.129
-121.001
-16.8045
73.9991
-108.67
-178.451
-101.849
-9.01551
46.4651
-66.9745
-145.02
-89.3771
-12.0757
27.5511
-18.7598
-88.7045
-67.8664
-9.72911
11.5895
-11.0515
-55.1591
-27.2133
-6.5511
0.0258393
-9.77674
-24.6311
-17.9545
-4.99025
-5.06174
-9.8538
-16.1458
-12.1578
-5.24348
-8.35827
-9.02856
-12.6741
-10.2651
-4.95574
-6.33311
-8.49909
-13.3121
-8.55465
-3.77349
0.0963125
-6.75469
-20.3746
-11.0667
-4.40648
3.86814
-6.86123
-27.5906
-10.9575
-5.46121
3.80028
-9.04598
-27.0058
-19.6707
-6.93568
5.33459
-13.5401
-37.3146
-24.5962
-7.97239
19.6693
-18.3519
-50.0099
-38.1664
-8.73306
25.8203
-26.8171
-45.0408
-8.60263
6.39358
-21.7846
-53.8282
-25.6456
-7.74947
2.49955
-11.1038
-30.6828
-21.8944
-7.65778
4.20495
-10.1978
-28.9397
-23.762
-5.98124
1.01066
-5.53578
-29.7239
-16.3655
-4.30352
-3.42343
-8.15443
-22.0244
-11.0242
-4.0135
-8.08051
-9.4002
-14.0872
-9.7698
-4.70014
-8.94742
-11.357
-8.57774
-4.89538
-4.12877
-1.90694
-2.94778
-4.24279
-8.34515
-14.7054
-9.45528
-4.4566
-1.52525
-7.47922
-16.5899
-12.8348
-5.53285
-1.81864
-8.64154
-20.1298
-12.6902
-4.18979
1.87349
-8.51757
-23.4197
-17.1592
-4.42705
5.64648
-10.7712
-19.8003
-4.23566
-1.96227
-13.0681
-25.4034
-11.7997
-4.31885
-1.15624
-9.69134
-17.6891
-11.8104
-4.37276
-4.64413
-10.0851
-17.2234
-12.6229
-5.29411
-6.36447
-10.0477
-16.2145
-10.1901
-4.36756
-5.49021
-2.30013
-23.2369
-12.4413
-3.3493
-15.3311
-6.98171
-3.85467
-11.7067
-7.79181
-11.1507
-7.36983
-3.8144
-8.00221
-7.83609
-10.8361
-8.98637
-4.48658
-6.14083
-7.70128
-13.346
-10.0702
-4.42762
-4.47509
-8.41318
-15.5371
-10.0012
-4.30155
-1.29567
-10.2544
-11.4432
-4.43194
-5.3716
-11.4782
-16.3668
-10.1831
-4.42508
-8.34149
-10.4914
-13.4148
-10.3526
-4.50313
-9.75233
-9.83717
-12.8189
-10.1636
-4.96291
-11.9558
-9.4876
-12.5609
-8.67048
-4.30596
-13.0537
-7.58851
-12.296
-8.4262
-4.00042
-10.38
-10.3045
-5.73869
-3.1653
-13.6089
-9.80346
-14.757
-8.84574
-4.13051
-8.57861
-4.60269
-11.5777
-12.1158
-9.42364
-8.33653
-4.91079
-4.0564
-0.22635
-9.14068
-1.21921
-12.2268
-12.1575
-20.1056
-12.6177
-9.54834
-20.5422
-10.3343
-8.21115
-4.86212
-10.4471
-3.25361
-4.09389
-0.314592
-2.85532
-0.364494
-8.7636
9.05162
-3.56024
-7.30093
-4.72018
-11.7175
-12.1038
-8.34959
-21.8606
-2.95373
-6.73106
-4.03662
-2.61763
-0.296751
-3.42978
-0.282242
-4.30695
-5.21742
-11.001
-11.473
-8.31099
-6.79396
-4.1946
-3.54033
-0.338042
-8.34774
-8.58769
-11.4221
-11.7229
-9.1524
-7.99777
-4.74157
-3.9245
-0.219618
-14.6018
-8.44034
-9.99724
-8.22693
-8.61574
-11.2245
-8.5458
-10.2415
-11.495
-9.14006
-11.1157
-9.89296
-8.02651
-4.88066
-8.72482
-5.70936
-4.08752
-0.24142
-4.31643
-0.680164
-9.22547
-8.01614
-7.19703
-7.49515
-8.35841
-10.2345
-8.18835
-11.0235
-11.0986
-10.2266
-12.4161
-11.1838
-9.11041
-6.09776
-10.1539
-6.63124
-4.56735
-0.733384
-4.89807
-0.871873
-12.3517
-7.39546
-6.89038
-7.04043
-5.7035
-6.21699
-7.71904
-11.3979
-8.0767
-10.4193
-8.03102
-11.6703
-9.95457
-12.2292
-10.1982
-13.1671
-12.1137
-14.7748
-13.5445
-5.70407
-8.0984
-5.22112
-9.91325
-7.3152
-10.6342
-7.59245
-3.84891
-0.547379
-4.25693
-1.63154
-4.35728
-1.70192
-7.10135
-5.06687
-0.97679
-4.35478
-5.03285
-1.50167
-0.317129
-12.5265
-8.96828
-20.4584
-8.37334
-12.6741
-13.71
-23.732
-10.494
-20.801
-11.6238
-14.5442
-12.6124
-24.6358
-14.3649
-5.32768
-5.99277
-4.03316
-8.99267
-7.08795
-6.50562
-4.26232
-0.715385
-3.11349
-0.614781
-4.49871
-1.90492
-3.37534
-1.49778
4.13409
-8.22802
-3.44572
0.722697
9.50501
-0.924358
-1.65989
-4.98243
-11.4443
-2.89058
-4.72345
-12.8378
-12.0767
-9.03614
-16.4909
-13.729
-12.0815
-3.15656
-6.58052
-4.42668
-20.3434
-5.31029
-9.30826
-5.99518
-0.518664
-3.41844
-0.607995
-3.95446
-1.54221
-4.34548
-1.89977
-4.40064
-4.55639
-1.64173
-2.93727
-2.32324
-3.43893
-10.9725
-4.77777
-8.25848
-6.23681
-10.9088
-6.08586
-8.90052
-9.39524
-8.80767
-7.88727
-13.6776
-12.4881
-11.0175
-10.2112
-4.5814
-7.02996
-4.65223
-8.59522
-6.11882
-8.8531
-6.71272
-0.626311
-4.03284
-0.346428
-4.21277
-1.78581
-4.38137
-1.85347
-2.23165
-3.3803
-3.37838
-3.46295
-7.86557
-5.15306
-7.34756
-4.3229
-7.53376
-7.67931
-9.76936
-9.91047
-8.86382
-9.15594
-4.73575
-8.44234
-6.48057
-8.48816
-5.99249
-0.336866
-4.00586
-1.63912
-4.60086
-0.826205
-3.77389
-3.47808
-5.53267
-3.31089
-4.21909
-7.27649
-3.64629
-6.96128
-8.56078
-8.68912
-8.27435
-7.87034
-8.07909
-5.62705
-6.84417
-4.90636
-4.40216
-0.774251
-3.92876
-0.634233
-6.17759
-3.22799
-3.55634
-7.77328
-8.42093
-7.70877
-7.00529
-4.53946
-3.95288
-0.357045
-8.35988
11.9632
-4.99474
-3.46061
-2.87579
-0.538031
-12.8885
-8.27254
-6.71583
-2.68784
-6.5866
-6.44204
-8.53451
-11.9294
-11.5264
-9.52597
-14.3011
-12.3177
-9.9783
-13.4755
-15.5793
-13.2249
-7.84746
-4.9442
-2.36042
-4.32608
-8.20677
-5.43794
-3.7606
-0.519551
-3.25892
-0.606028
-3.53005
-1.41092
-8.18231
-7.86142
-7.55568
-6.23828
-6.29602
-5.12766
-6.17919
-11.262
-8.80093
-10.5829
-9.1832
-13.064
-8.95944
-12.5335
-10.1581
-12.1153
-11.7194
-14.7549
-13.5453
-14.828
-13.9183
-5.4651
-9.07553
-7.05429
-9.72384
-6.96284
-11.0248
-7.93731
-0.701502
-3.96205
-1.58978
-4.43917
-1.89523
-4.66694
-1.87991
-14.0393
-13.6901
-24.5184
-8.39524
-17.1224
-6.52107
-33.6886
-15.1338
-25.7149
-15.4188
-21.052
-19.2241
-34.485
-22.9033
-4.64373
-14.1428
-7.8097
-3.45116
-19.0895
-17.7746
-15.1593
-13.7294
-25.7812
-21.55
-20.2607
-2.0045
-3.23785
-2.80334
2.39513
0.0696473
1.28306
0.137903
-2.65186
1.0238
0.203566
2.54133
3.23234
-7.80942
-4.56522
-10.0919
-1.76395
-16.5291
-8.41374
-12.5131
-11.3692
-16.5769
-9.79442
-4.82498
-8.20995
-5.69512
-5.12408
-4.91589
-0.736578
-3.87279
-1.71596
-3.35879
-0.699952
2.61494
6.23607
0.404146
-18.3446
1.14867
-9.70379
-18.6172
-10.1223
-10.7365
-6.9594
-7.95865
-2.50862
-5.09166
-2.58681
-2.24631
-0.566102
-2.28105
-0.339476
-12.0005
-10.3453
-10.9468
-13.0387
-13.6038
-10.713
-8.89893
-5.29372
-4.02161
-0.658572
-6.72266
-1.85113
-10.3532
-9.71307
-6.37327
-7.06315
19.5392
-11.2225
-13.7883
-10.7607
-19.0886
-36.975
-14.6397
-12.5191
-19.4479
-13.3189
-0.841276
-4.09482
-8.24816
-5.74983
-7.99583
-5.78315
-3.09954
-0.581167
-3.49735
-1.38744
-3.7029
-1.55264
-8.341
-17.5896
-9.94872
-22.2729
-4.75121
-29.7807
-18.2065
-14.1427
-22.3194
-13.3414
-28.3061
-19.8264
-22.3918
-6.73213
-36.2241
-14.0677
-34.1451
-9.77158
-66.8034
-26.3045
-36.8688
-25.6266
-41.5363
-39.8173
-61.5435
-49.7076
-3.66235
-22.401
-2.48948
-3.53518
-40.2706
-28.7262
-25.3125
-25.1297
-54.2802
-46.0387
-44.1894
-13.4111
-0.819536
-17.6283
1.50265
-21.7696
6.23268
-17.2472
-13.6642
-17.8116
-10.0555
-24.592
-21.9128
-18.6077
-15.0104
8.30597
-2.637
2.3697
6.72906
7.40284
3.95076
3.63215
1.00536
-8.54561
3.52147
-12.4887
0.080726
-5.90881
-10.6896
-10.4212
-7.73153
-15.878
-13.7304
-9.87043
-9.63094
-3.43964
-4.79553
-3.1729
-9.55983
-5.62179
-6.90241
-5.27206
-1.15019
-2.45674
-0.623701
-3.95521
-1.70631
-3.79907
-1.77797
2.07752
2.39807
2.01872
1.19401
-7.75403
0.629381
-5.24687
0.816724
-3.24219
-6.69915
-7.23084
-7.5991
-4.18103
-5.59291
-3.15492
-6.82821
-4.55363
-4.99697
-4.21105
-0.423558
-3.77138
-0.784041
-3.50089
-0.416833
-14.3595
-11.2052
-11.0208
-12.0545
-12.4235
-10.3955
-8.97256
-5.74329
-4.31751
-0.598916
-11.0339
-10.3129
-12.5562
-11.0051
-9.51261
-9.9363
-11.2295
-12.4303
-11.1826
-12.4288
-11.497
-13.525
-13.4214
-12.0153
-12.7086
-10.9131
-14.6083
-13.2176
-9.08548
-6.72601
-9.37787
-6.01871
-10.0685
-7.27717
-3.92532
-1.54049
-4.40448
-0.680098
-4.09929
-1.57372
-22.8255
-7.45368
-34.1176
-12.3075
-22.7047
-9.09846
-38.546
-16.8695
-30.3856
-25.9772
-26.576
-23.7543
-40.9051
-31.7995
-30.7461
-11.6972
-28.1148
-5.61879
-48.2663
-9.33282
-53.5185
-20.8685
-30.4122
-30.2807
-48.535
-34.2076
-63.0547
-56.3955
-57.1777
-7.99056
-78.1734
-105.199
-152.83
-84.0487
-177.508
-64.5953
-71.842
-62.9691
-152.862
-121.076
-179.968
-127.776
-9.6802
-53.2878
-56.2812
-82.6301
-157.404
-68.7669
-61.2927
-61.1418
-126.295
-172.097
-140.781
-21.7253
1.58995
-24.4663
-1.25852
-62.975
46.7137
-40.4599
-28.9068
-30.1517
-78.0972
-130.189
-76.031
-26.121
5.01124
-16.3092
17.5819
-50.6446
5.37236
-15.8156
-23.4896
-19.7216
-17.7267
-47.4592
-57.1071
-20.3488
-25.4112
3.23708
-3.82604
1.56906
5.94394
4.23882
3.22468
2.91251
-3.40174
0.750091
-2.62652
1.23663
-3.82563
1.3514
-1.78535
-8.23634
-4.51391
-5.91996
-8.65786
-10.1168
-6.13345
-7.5287
-5.72576
-5.20354
-4.49557
-9.87473
-7.3435
-7.79314
-6.51847
-1.82815
-3.48396
-0.689947
-5.02492
-2.23066
-4.18746
-1.85381
1.25581
1.76524
2.02358
-2.93166
1.37776
-2.69673
-5.45833
-5.0024
-6.48083
-4.2646
-6.68477
-4.80573
-0.450772
-3.89263
-0.802238
-11.5182
-13.5706
-13.6472
-9.65249
-9.1485
-4.91196
-4.52389
-0.0595828
-13.0198
-11.0977
-16.6226
-11.0604
-9.683
-10.5539
-11.2041
-12.3821
-11.2414
-13.4131
-11.6869
-13.2076
-12.7512
-10.9398
-13.4876
-9.75849
-14.0274
-12.6035
-9.41363
-6.05573
-8.93846
-4.9765
-9.4621
-6.70154
-4.5136
-0.702946
-4.36636
-0.169946
-3.81744
-1.41254
-54.2414
-12.4545
-71.733
-42.9788
-98.5009
-76.4384
-146.721
-44.0489
-77.1959
-92.6179
-114.122
-98.1604
-157.574
-178.338
-82.4606
-87.7872
-104.094
5.05536
-110.399
-122.404
-118.186
-139.991
-166.67
-169.005
-128.18
-134.542
-118.806
-91.4237
-164.378
-126.835
433.197
435.58
-175.763
-185.975
-154.148
-131.638
-136.383
434.849
-49.254
-111.718
-48.6622
-108.832
-34.046
-27.105
-3.6269
-19.0526
-5.46867
-16.4863
-2.42266
-15.3677
-1.17792
-103.073
140.998
-167.851
333.411
428.884
345.351
424.563
-173.295
-137.117
-182.856
434.56
435.629
431.935
434.647
-145.602
-185.858
-127.922
434.872
386.985
434.277
363.652
-49.8392
-113.063
-46.0304
417.061
-24.6523
441.012
-6.07717
-23.6081
-4.66548
-17.5428
-1.2142
-0.0750311
-117.848
124.695
-124.806
345.504
424.713
338.414
423.129
-119.007
-159.553
431.64
434.008
431.159
433.791
-126.976
-177.717
-159.043
433.744
399.836
433.186
358.88
-50.2029
-132.053
-71.4026
426.612
404.529
-44.4222
-5.5283
-32.1948
-6.90338
1.3464
-30.4714
-0.91346
-156.133
-64.8257
-118.057
431.095
433.906
429.399
-169.545
-141.55
-169.74
433.34
384.428
-146.05
-79.3934
-148.646
-90.9951
415.48
-47.5919
-138.763
-69.1591
-7.64584
-44.1894
-8.19786
-33.3235
-1.72181
-35.4665
-0.942765
-84.9772
-58.8491
-90.5044
-113.651
-89.4604
-100.402
-165.808
-115.131
-161.212
-120.209
-145.783
-99.2588
-129.732
35.5051
48.9864
37.6213
103.615
22.1137
71.4728
28.5747
-72.2905
21.5009
-65.5657
-13.9727
-74.3308
-156.689
-60.1994
-86.3678
-94.4151
-159.456
-105.614
-84.5868
-67.0082
-112.235
-127.192
-173.098
-107.32
-37.5096
2.98006
-16.342
-12.3866
-49.7143
-3.09292
-29.6679
-66.4844
-28.2502
-38.075
-84.0247
-121.491
-47.9237
-62.3515
2.41206
5.39345
3.81857
2.12477
2.41953
-1.40779
1.48728
-2.67291
1.30508
-3.39296
-6.89858
-7.09669
-8.21519
-5.19391
-6.19973
-5.70497
-8.03937
-6.32856
-5.55882
-4.20723
-1.72372
-4.18348
-1.82633
-3.34329
-0.677824
0.895387
2.04045
1.45186
-3.94905
-4.95371
-5.71382
-4.79832
-3.78999
-3.31322
-0.326678
-17.215
-11.6379
-9.23506
-7.38267
-11.8041
-13.9951
-12.2919
-18.9632
-14.0109
-9.50198
-18.6478
-10.8346
-8.65719
-4.62015
-6.61952
-4.33517
-5.08011
-0.0899883
-3.35953
-0.558263
-10.6937
-8.61124
-9.59029
-7.93593
-8.66316
-6.20612
-8.35384
-14.1764
-12.33
-14.9277
-13.0364
-17.7697
-13.1965
-17.5652
-10.9717
-16.0752
-14.2582
-17.3376
-13.6646
-18.5252
-15.8677
-5.37674
-10.3965
-7.36849
-7.3764
-5.60625
-9.87164
-6.87993
-0.54261
-4.19772
-1.62268
-3.45469
-1.37667
-4.20725
-1.70066
-156.083
-105.714
-142.376
-92.361
-206.765
437.931
-154.646
-171.586
-187.387
-223.514
-167.853
-144.283
-142.636
-126.369
437.53
438
431.398
435.575
-174.888
-129.992
-125.964
437.792
-136.863
433.844
374.697
-42.0704
-112.097
-35.5636
-108.381
-22.1666
422.87
318.661
-2.80632
-15.4935
0.255126
-8.7554
-0.378364
316.048
432.712
435.904
431.943
434.438
429.222
432.606
-126.076
435.01
459.463
432.616
404.844
431.809
414.494
-28.8694
424.001
406.076
316.077
418.203
346.739
0.910565
-13.2313
0.42341
317.794
19.0556
276.158
8.2139
435.075
430.874
432.76
426.491
431.32
425.607
429.943
401.489
434.262
342.047
431.468
411.914
430.615
440.677
449.636
350.396
438.174
312.316
442.818
247.577
0.350661
328.221
1.37161
245.073
2.30551
304.847
0.884689
431.953
430.213
433.607
424.788
429.294
424.271
428.995
402.195
432.7
390.734
430.599
432.891
428.685
473.368
321.971
410.637
324.099
423.848
299.069
370.524
292.622
1.71076
1.47854
297.934
294.34
6.65217
433.497
429.362
433.321
425.193
429.633
427.343
430.786
372.751
432.7
-144.966
429.149
414.092
428.601
376.036
-134.824
-55.768
351.777
225.285
410.04
277.994
0.961343
-37.885
0.737262
238.342
5.80763
313.15
-9.01277
433.105
-94.319
425.102
431.176
430.539
432.276
-144.447
-112.99
430.644
548.265
431.494
409.782
-59.4706
-92.8869
-89.7959
402.825
321.363
394.831
-64.3431
0.345592
-61.8042
-3.90991
302.944
-14.7376
-43.8736
1.95189
-80.573
-80.3694
428.042
432.537
-69.7272
-96.6848
-104.527
-148.611
432.08
409.294
-105.816
-149.159
-115.224
-164.782
-124.516
-72.4777
-150.422
-119.579
2.53843
6.1293
5.13321
-4.30163
1.354
-9.98371
-6.17801
-11.206
-7.71097
-3.78196
-4.69772
-3.16498
-0.653877
-2.95374
-0.672225
-7.26251
-6.43184
-5.3094
-3.70689
-11.658
-21.3167
-5.87668
-17.1006
-20.4474
-8.57973
-17.6906
-13.2978
-3.48877
-4.09844
-9.06205
-4.84196
-3.09941
-0.598012
-3.77116
-0.716611
-5.39866
-3.29
-6.81844
-2.7676
-2.58537
-0.138567
0.313089
-21.3645
-11.9552
-23.3437
-5.57103
-17.6279
-5.97644
-26.0506
-10.6763
-23.108
-16.8156
-18.4067
-14.7448
-27.4697
-12.4599
-5.11196
-12.6301
-6.03146
-11.3603
-5.50791
-6.01131
-7.77418
-24.4756
-15.3328
-32.0362
-7.35459
-28.2837
-18.609
-19.4756
-35.0683
-29.6931
-29.351
-13.5526
-39.5685
-36.3817
-30.5182
-55.3105
-19.0973
-62.4481
-40.9034
-122.224
-40.5683
-66.0119
-57.8816
-58.1907
-47.0851
-130.966
-83.111
-129.037
-128.297
-188.517
-72.3727
-160.516
-137.611
-194.316
-98.2731
-215.193
-158.631
-174.829
-144.489
-210.666
-142.759
-208.725
437.613
438.314
-199.619
432.922
437.143
-146.658
437.958
-133.604
-204.573
-125.793
436.508
458.223
-29.6242
-105.453
-21.3598
-86.2565
-19.6074
405.687
294.839
-3.48197
-8.2114
-0.407574
-11.5391
0.608884
307.029
-2.28365
434.931
416.593
435.85
370.575
435.482
386.069
-18.3817
432.506
316.107
352.458
274.736
380.187
154.62
0.187625
305.875
304.246
-6.89913
285.639
-0.140389
421.772
432.044
360.655
435.496
410.923
432.769
451.141
311.155
416.746
300.614
419.221
272.592
438.374
257.981
1.69294
335.002
7.50785
291.354
-1.43227
244.173
-75.1323
413.227
430.671
438.74
431.418
556.682
430.191
619.674
319.536
441.733
222.993
422.449
260.827
431.98
276.042
-0.517083
304.555
4.36916
145.909
270.373
-34.0254
428.945
428.767
415.491
431.185
466.002
430.638
426.398
274.4
364.467
305.618
427.242
1.34785
436.178
195.429
267.814
1.60817
194.723
-74.9128
375.601
429.438
440.819
430.263
442.475
430.141
423.045
275.137
422.641
298.475
450.221
229.203
384.328
229.306
5.57047
335.781
-3.33269
162.144
265.766
-0.747669
410.59
431.388
407.517
429.681
209.044
427.842
407.911
291.791
416.539
399.1
145.287
429.258
286.682
-27.4837
2.29469
273.786
0.598057
257.56
-3.15825
432.485
-63.2083
-98.262
428.91
428.544
427.907
432.027
418.93
-109.113
-144.685
428.288
408.362
431.126
-66.325
-142.683
-99.3205
429.811
286.164
-144.646
-74.6322
1.91349
-67.8461
-4.41311
316.07
-4.80594
-52.8535
-1.37783
-100.359
-63.3705
-103.707
426.783
-50.1923
-112.815
-150.97
-124.902
-153.343
-150.125
-126.723
-160.479
-114.079
-153.536
-111.097
-148.714
-91.7315
-175.181
-125.255
-53.7717
-3.55286
-27.4644
-35.6477
-110.626
12.5943
-56.558
-109.271
-43.0018
-55.2488
-115.836
-160.154
-56.7563
-70.1214
-17.0571
2.87069
-14.8979
19.6902
-48.7733
13.6786
-32.6692
-18.1962
-19.2206
-49.8888
-50.9302
-29.8528
-14.0507
4.77557
-11.813
7.79742
-28.3714
7.71869
-13.2611
-16.5321
-12.7137
-9.64963
-26.1938
-24.5655
-16.2101
-12.931
7.62007
8.68215
8.99938
0.979306
4.93249
-13.0857
6.0075
-9.97829
3.47239
-6.5466
-8.66255
-12.5559
-11.4222
-8.49487
-7.07838
-2.67761
-8.47356
-3.11403
-4.43183
-2.73196
-1.36762
-2.92702
-1.36788
-2.25409
-0.510057
4.65241
3.30472
-6.04434
-7.19495
-6.17812
-4.64356
-2.74825
-2.37438
-0.200806
-5.61933
-5.56494
-7.30705
-6.52682
-6.45599
-8.75275
-12.5585
-7.30032
-10.0565
-8.03975
-10.9315
-14.2531
-12.403
-10.5601
-8.69964
-13.2286
-12.1231
-7.94656
-5.50676
-7.84118
-4.95581
-8.98095
-6.49339
-3.59459
-1.54539
-4.33195
-0.088525
-4.09855
-1.7064
-16.8261
-5.78962
-21.3749
-7.31697
-12.0945
-7.78875
-14.7632
-15.3778
-22.4512
-16.425
-15.4685
-14.8831
-19.5027
-17.8788
-24.9374
-6.69356
-19.317
-10.953
-28.5266
-17.5996
-25.6733
-24.6154
-35.8332
-32.2394
-40.8304
-142.409
-14.2532
-49.6725
-57.613
-143.639
-145.208
-81.4815
-53.71
-50.5747
-150.203
-122.443
-34.5724
231.914
-137.418
109.659
-60.8216
310.134
431.876
-162.956
-139.15
-193.707
-89.2463
-163.34
435.923
438.655
-117.688
-198.856
-135.856
-162.928
-139.121
438.232
-37.1877
-95.1702
-24.3572
-113.854
-52.4149
-33.3581
-4.16098
-14.3506
-2.49667
-17.1652
-4.15618
-16.7395
-1.1157
-196.22
434.593
436.236
435.985
438.171
432.759
435.483
-122.555
435.979
402.106
437.439
420.581
434.727
420.154
-17.4341
405.198
292.063
429.638
-22.1073
426.526
217.883
-0.306713
295.138
5.36184
-14.4593
-0.669047
272.677
1.62959
556.971
434.157
426.154
434.714
357.396
434.088
361.197
269.195
413.98
251.875
415.529
279.203
443.214
40.5374
4.87096
317.157
310.747
4.76176
227.956
-111.848
383.751
435.759
416.368
434.25
438.267
428.428
490.249
200.814
438.299
261.272
436.828
142.183
405.434
165.132
0.242355
356.481
-25.138
207.878
328.641
581.307
429.248
593.101
425.776
437.547
419.564
372.115
219.662
430.896
210.06
346.959
160.735
328.742
271.611
-24.2375
234.882
-28.5714
228.247
272.54
511.592
415.494
411.595
415.106
409.715
414.046
410.674
412.947
427.477
420.524
427.87
417.469
419.776
417.821
420.551
470.884
429.705
489.831
418.819
372.504
419.866
351.437
172.889
451.681
69.3502
331.832
269.291
277.222
248.243
167.937
267.828
470.028
242.239
733.245
452.937
431.587
208.883
423.303
393.285
427.569
426.097
207.496
394.129
193.183
268.195
181.633
439.326
232.526
377.585
-1.01626
213.242
693.994
256.527
388.732
427.09
408.841
428.92
544.352
427.464
401.477
180.639
426.369
327.121
437.632
227.793
425.332
208.565
-27.6391
285.631
-0.921338
309.689
234.762
-3.08532
428.503
430.207
431.966
423.656
427.41
429.446
430.808
438.206
431.088
427.032
442.895
430.046
357.347
303.83
-71.7223
423.307
234.626
342.874
298.612
-7.96132
-50.2909
0.909032
261.077
-25.9464
300.312
1.60386
417.436
174.628
4.34891
331.248
418.188
189.222
-66.1138
432.243
-69.5288
-116.386
431.329
432.601
-74.4444
-90.3981
-153.229
-125.898
-162.183
431.401
324.504
-92.4831
-139.508
-85.2896
-172.933
-118.538
388.218
302.95
-154.565
-90.7362
-1.06456
-52.7877
-12.2709
0.93197
-48.3076
-9.67193
-121.084
32.2129
-50.2595
-87.0964
9.32651
-64.7747
-166.691
-84.4477
-100.663
-151.698
-82.2313
-123.634
11.8642
-26.7229
12.3447
-40.6062
5.30056
-14.158
-26.9663
-27.414
-54.1765
-73.9146
-26.2382
-31.7261
-17.474
4.5755
-10.8299
4.9831
-7.51453
3.76229
-5.17577
-21.339
-13.3762
-13.1014
-17.0223
-19.761
-11.9773
-14.3901
6.86116
1.10421
4.54936
7.87595
6.32652
3.20303
3.59147
-5.75622
2.44033
-5.42002
2.55116
-3.53724
2.38743
-2.46479
-10.1958
-7.28443
-6.86867
-8.25106
-9.52866
-4.4752
-6.18253
-5.34315
-5.1515
-3.54642
-8.59705
-6.41422
-5.6719
-4.25884
-1.9519
-2.80885
-0.618039
-4.56382
-1.99038
-3.32337
-0.724338
4.02221
0.332011
3.21153
-5.25298
2.62939
-2.69172
-5.82057
-3.75469
-5.44827
-3.17361
-5.17798
-4.04295
-0.393977
-3.50407
-0.501942
-9.1809
-9.94172
-8.42511
-7.73457
-5.12922
-4.21444
-0.180229
-7.30865
-5.91236
-6.25567
-13.941
-7.18978
-5.56361
-6.04745
-9.79019
-7.28605
-10.076
-7.12775
-9.2563
-7.0198
-9.70122
-8.76044
-13.0987
-12.1072
-10.2059
-9.23888
-12.928
-12.0954
-5.07092
-9.81654
-7.29122
-7.97749
-5.54334
-10.0473
-7.54166
-0.164369
-4.38348
-1.75708
-4.0725
-0.613394
-4.46271
-1.7855
-162.285
436.634
438.493
-66.5127
-146.107
437.732
438.074
-133.221
438.072
-162.788
-136.838
437.619
429.601
-53.3316
-33.2703
-108.042
-54.6128
434.446
-30.4118