/*--------------------------------*- C++ -*----------------------------------*\
| =========                 |                                                 |
| \\      /  F ield         | OpenFOAM: The Open Source CFD Toolbox           |
|  \\    /   O peration     | Version:  4.0                                   |
|   \\  /    A nd           | Web:      www.OpenFOAM.org                      |
|    \\/     M anipulation  |                                                 |
\*---------------------------------------------------------------------------*/
FoamFile
{
    version     2.0;
    format      ascii;
    class       volScalarField;
    location    "61";
    object      p;
}
// * * * * * * * * * * * * * * * * * * * * * * * * * * * * * * * * * * * * * //

dimensions      [0 2 -2 0 0 0 0];

internalField   nonuniform List<scalar> 
146404
(
-7.73169
-3.48507
-11.637
-7.34194
-12.9537
-7.82317
-3.97255
-3.77812
-7.1343
-20.7231
-2.13352
-8.24848
-4.77614
-11.3732
-6.62945
-3.37355
-8.03013
-6.5185
-4.08748
-10.3517
-8.37557
-11.5219
-8.15842
-4.05634
-6.35664
-8.37696
-12.0972
-9.83059
-4.33657
-2.60493
-8.84172
-19.2456
-12.5227
-3.7797
-1.8263
-7.88667
-16.383
-10.6036
-3.93072
3.36099
-1.50169
-20.5099
-3.81831
2.18448
-6.52975
-15.9977
-10.7012
-4.17021
0.397668
-4.93768
-11.2429
-9.82259
-4.76691
-0.982493
-3.85247
-9.52449
-8.53672
-4.0633
-3.18176
-3.29883
-8.58244
-6.88952
-3.75345
-3.38425
-7.74031
-2.79045
-2.89225
-8.95269
-17.5842
-11.272
-5.2174
1.57945
-9.44685
-25.0153
-17.3861
-5.66652
3.7917
-11.7649
-34.305
-23.1092
-6.82455
6.17485
-8.72281
-27.1112
-17.644
-8.21684
13.1904
-7.49174
-33.493
-8.68124
10.8795
-8.98555
-27.6819
-24.0539
-9.31324
13.129
-6.40222
-28.5405
-24.599
-9.8189
7.77525
-2.47277
-17.1449
-16.3275
-6.78507
5.2203
-4.3971
-14.4785
-9.62504
-4.8492
4.98105
-3.28521
-12.1792
-2.36476
0.605153
-9.17892
-5.2259
-2.71272
-7.86786
-10.5169
-14.5264
-9.00922
-3.32549
-1.19571
-9.37353
-22.0339
-11.1939
-4.38223
6.89722
-3.03736
-29.1464
-10.685
-7.37969
12.163
-12.3534
-34.2495
-25.9811
-8.51039
21.2066
-31.8871
-54.3396
-44.3381
-9.46011
35.0266
-33.5764
-68.4747
-38.6224
-10.7556
46.3199
-0.2107
-75.2554
-12.1933
37.1289
-24.4831
-70.7882
-49.6046
-14.3756
27.7856
-23.6246
-59.4126
-52.9405
-15.6976
23.9924
-4.02207
-34.8443
-36.825
-13.3662
17.583
3.87832
-28.173
-15.5588
-8.98668
8.93925
-0.0880396
-15.2745
-11.3207
-5.64339
3.00804
-0.216398
-7.53176
-7.36348
-4.02515
0.575634
-4.31406
-5.22813
-3.6514
-9.57801
-10.636
-13.1516
-9.45159
-4.04453
-3.43421
-11.3584
-23.5282
-12.7673
-4.03484
2.83482
-12.7735
-30.9664
-20.6713
-7.41656
25.0537
-10.3145
-55.8411
-24.9489
-11.1152
56.1012
-23.2189
-97.9969
-79.8163
-11.2645
98.582
-84.8546
-162.477
-107.335
-15.9277
111.871
-105.753
-193.373
-108.796
-21.148
141.488
-111.375
-106.829
-29.1792
118.069
-106.701
-177.491
-130.032
-37.9286
96.699
-66.659
-138.21
-145.34
-38.1924
60.4213
-5.49095
-92.2696
-160.748
-26.1003
35.0737
8.3888
-53.4143
-49.289
-15.3362
16.0979
0.153585
-21.7847
-21.3573
-8.54909
8.88937
-0.221411
-11.8673
-11.5541
-4.83751
2.55637
1.23061
-6.1286
-7.44698
-3.93135
-12.2519
-10.5132
-13.5224
-8.19682
-3.80865
-4.31882
-12.6651
-17.8428
-13.2508
-4.55139
0.0953438
-11.5059
-37.3998
-18.8201
-5.85359
14.6303
-27.4381
-92.7118
-31.6822
-7.1113
60.8499
-95.4352
-177.636
-80.1541
-12.7075
141.84
-89.4928
-170.995
-145.488
-14.162
309.21
435.005
-104.2
-12.4808
380.742
433.6
434.948
410.116
384.054
430.41
434.225
428.912
308.675
371.107
429.759
433.353
421.902
303.772
428.087
-126.615
-31.8624
175.498
-175.43
-51.3253
67.9022
-37.4353
-102.865
-117.657
-28.192
24.9373
-3.46112
-45.5384
-47.9092
-14.3468
14.1307
4.9713
-20.239
-24.6231
-7.94136
7.79315
0.130515
-9.77899
-9.67291
-5.29662
1.04486
0.556101
-6.52698
-5.50164
-3.34253
-3.90158
-9.40938
-20.1073
-6.43627
-2.87803
-0.651709
-12.0415
-24.1082
-13.416
-4.29422
7.54621
-13.9324
-42.1645
-24.4983
-8.57572
39.7864
-77.6501
-127.889
-48.6086
-7.95507
131.952
-99.3339
-219.425
-105.637
-10.9719
374.123
436.859
437.732
-9.47579
412.317
430.037
433.737
405.911
305.271
413.46
426.557
431.213
437.375
333.24
412.079
425.002
431.326
424.162
284.895
408.221
424.578
429.483
415.57
333.881
389.527
425.021
430.334
398.593
296.376
345.53
430.671
432.316
423.406
-41.3205
170.177
-66.428
-119.496
-137.74
-59.8554
49.5272
-21.6703
-86.6027
-88.4104
-20.5747
24.483
4.223
-30.5158
-28.7187
-9.17193
12.789
3.20662
-17.4766
-13.4602
-4.62061
7.19285
1.5959
-13.6262
-4.10402
-2.97077
-3.02461
-8.23136
-16.9602
-9.19813
-4.16972
4.60849
-3.27925
-26.0912
-11.5781
-5.90833
25.671
-30.1518
-11.037
83.0247
-78.4671
-163.764
-63.8492
-13.7577
303.871
-192.386
-91.0971
-8.54722
413.515
431.15
435.961
391.724
276.619
416.806
427.501
435.009
378.958
260.849
414.795
423.773
433.704
431.54
335.678
412.849
420.927
429.533
431.369
213.774
412.168
421.914
431.333
454.1
312.15
407.805
422.833
430.672
349.57
299.162
385.474
425.673
427.081
428.478
315.978
301.272
427.492
431.904
-147.588
-47.0276
90.876
-37.1837
-134.637
-149.07
-22.2026
37.1522
71.3654
-103.622
-12.4402
16.5473
9.21423
-23.1513
-15.2256
-5.55516
7.37825
1.21176
-10.6551
-7.36354
-4.07952
2.37004
-6.69604
-4.79878
-2.83089
-6.80672
-9.81889
-7.43635
-4.12706
-1.09929
-7.73558
-18.5327
-11.8141
-3.93319
6.00486
-10.3833
-34.9956
-21.8333
-7.27794
29.0222
-28.47
-63.0353
-39.4467
-10.6111
95.0608
-80.2637
-172.035
-84.2007
-25.4656
379.909
436.71
437.853
438.631
-17.8828
416.866
430.06
434.916
388.195
263.534
416.784
425.776
433.583
459.357
173.235
414.487
420.954
424.988
299.895
239.97
408.333
416.857
413.112
336.974
256.439
410.158
417.781
419.91
293.324
231.51
410.86
421.342
429.842
440.069
170.713
398.061
422.402
427.449
412.467
257.794
347.012
429.906
432.923
385.794
317.048
126.976
-58.0828
-118.868
-151.966
-50.3044
29.0045
-0.209038
-54.0681
-40.5929
-13.4107
15.1228
0.793227
-16.5176
-18.0851
-7.42318
8.18252
2.96685
-8.46608
-10.3347
-4.92512
0.684556
2.23422
-3.84018
-5.29802
-3.43789
-13.4223
-6.61048
-9.56883
-7.42975
-3.80551
-0.828236
-7.55549
-18.174
-11.8165
-3.99188
6.34886
-10.821
-35.2386
-22.2778
-7.62925
28.9997
-34.5251
-77.0705
-49.0615
-11.1234
116.963
-63.0855
-161.593
-101.867
-24.271
385.512
437.565
437.458
420.484
417.492
430.877
435.899
441.52
342.445
417.642
426.166
441.991
447.596
196.056
412.428
421.276
418.016
333.726
276.476
408.287
416.816
403.864
337.362
264.173
406.186
417.496
411.965
333.85
260.207
412.141
421.897
427.973
454.813
208.625
401.402
423.127
428.464
440.985
260.113
352.942
429.346
431.661
415.426
320.536
138.559
-60.8397
-126.87
-145.613
-41.7498
26.1352
-6.17166
-47.9649
-45.5954
-14.0534
16.1564
1.11846
-18.8785
-19.9282
-8.11391
8.45558
3.05059
-8.68542
-11.2964
-5.16053
0.710893
2.20262
-4.05727
-5.68836
-3.77632
-6.50283
-9.40431
-6.92035
-4.07211
-2.73074
-6.51661
-14.3008
-10.2811
-3.92044
5.69554
-5.9644
-25.4154
-18.8486
-6.65616
32.4618
-13.2026
-54.5675
-41.9966
-11.3791
120.247
-73.8218
-154.026
-120.782
-19.6858
374.234
436.821
438.126
413.922
-15.865
415.494
431.615
435.542
426.978
278.423
418.805
428.432
438.741
440.155
204.268
416.768
423.465
427.782
328.319
235.035
413.58
420.197
417.437
334.311
270.254
414.532
420.838
424.483
332.117
261.45
411.704
424.679
433.115
439.604
143.326
398.256
426.296
429.646
351.935
264.733
337.215
433.374
433.164
422.198
320.443
107.759
-53.2205
-115.195
-164.268
-18.1597
35.3545
2.74928
-55.0058
-62.2876
-11.7429
16.0723
4.46194
-18.2381
-20.0676
-5.64483
6.35889
1.50515
-8.87649
-9.35446
-4.87983
-0.125717
1.7571
-4.25316
-5.84377
-3.59468
-0.863693
-6.64784
-15.9367
-7.15535
-3.33639
7.13712
-4.59721
-25.3461
-6.39588
-5.61866
25.5328
-15.9668
-8.53827
73.0343
-47.9059
-146.767
-103.058
-14.912
286.423
-145.321
-125.769
-15.0234
396.975
433.308
436.347
438.391
294.037
415.757
430.08
435.633
432.622
226.042
417.991
428.522
433.482
447.521
329.241
417.703
432.051
439.23
443.813
227.861
413.963
426.61
433.247
430.249
258.681
407.353
426.597
430.941
373.936
261.147
383.986
431.056
430.518
373.05
300.146
291.221
431.434
433.784
-133.053
-26.0159
63.6811
-49.5542
-180.226
-122.418
-14.0521
24.1668
1.92954
-63.7053
-8.36787
11.168
11.2528
-26.7675
-19.1184
-5.07491
4.63814
4.39732
-13.1514
-10.1372
-4.02168
1.01256
-7.70024
-6.03316
-3.34961
-4.22489
-8.75067
-18.3304
-7.47013
-3.14413
0.18452
-9.53607
-19.0156
-12.7677
-5.20099
8.01457
-11.7855
-35.5665
-26.3915
-7.0567
34.4032
-38.0332
-96.0405
-59.5432
-9.92508
125.135
-71.003
-143
-127.051
-21.7081
332.042
438.903
439.452
-21.1312
393.132
433.901
435.755
429.922
265.926
405.331
429.916
434.191
447.205
253.724
407.191
429.426
438.357
358.781
171.383
401.982
428.948
432.624
441.507
263.454
383.78
432.375
431.388
403.277
291.186
336.031
434.29
434.487
341.28
-22.8293
91.8835
-101.241
-187.506
-132.878
-13.5579
8.56775
-14.9123
-51.117
-33.3004
-10.4099
2.94681
-8.88689
-35.6964
-26.3655
-7.1458
1.44037
-10.3328
-20.3262
-12.6609
-5.30868
-0.731516
-7.09549
-19.0798
-7.34662
-3.41976
-12.2642
-8.12454
-11.4018
-7.56827
-3.93675
-4.43104
-8.56461
-13.1013
-10.1019
-4.45965
1.55952
-8.25942
-22.4217
-15.0347
-4.87574
15.6066
-10.5111
-37.5252
-33.7264
-9.00608
50.1877
-39.2782
-116.129
-78.5113
-12.7069
122.413
-64.3965
-148.682
-130.65
-28.6746
283.127
435.607
-130.919
-107.547
-26.6831
353.585
435.244
437.654
393.949
361.062
435.667
438.15
402.865
320.758
350.549
435.099
436.289
422.727
281.508
434.253
-116.533
-23.3286
93.7131
-147.963
-13.9555
31.7409
-37.2865
-91.3433
-58.5872
-10.0349
2.68266
-9.917
-29.1899
-18.533
-5.90849
-2.60734
-10.2895
-18.2599
-12.2908
-4.67363
-4.32308
-8.68687
-14.2482
-10.5426
-4.66641
-7.78213
-7.85322
-12.0914
-8.29873
-4.00048
-8.3801
-7.7013
-10.5081
-8.02018
-3.5313
-2.95089
-7.43962
-15.0257
-10.0197
-3.89369
4.55554
-7.80449
-23.5317
-17.494
-5.71559
21.5589
-1.84668
-46.5506
-25.6682
-8.35737
36.889
-27.0736
-84.2835
-50.4877
-11.1892
53.0065
-73.4819
-145.222
-79.1846
-13.296
73.583
-128.397
-154.756
-80.548
-21.3722
81.1177
-127.63
-104.238
-16.501
75.3498
-108.778
-175.172
-93.4458
-9.0032
47.6504
-70.3129
-144.456
-80.5171
-11.5152
28.4679
-18.7489
-87.6774
-60.5879
-9.34002
12.478
-9.7627
-54.328
-25.8888
-6.22176
0.89247
-8.99841
-23.8872
-17.2232
-4.79454
-4.29397
-9.17429
-15.599
-11.6838
-5.07342
-7.63834
-8.37611
-12.1305
-9.84149
-4.79228
-5.82158
-7.99702
-12.8479
-8.15524
-3.56392
0.642444
-6.24864
-19.8494
-10.5686
-4.12272
4.44868
-6.2705
-26.7973
-10.2424
-5.09664
4.37644
-8.36999
-26.3274
-18.2357
-6.33156
5.9964
-12.696
-36.0213
-22.7448
-7.37959
20.3704
-17.5047
-48.62
-35.1201
-8.12331
26.4635
-26.2638
-42.5674
-8.04484
7.26146
-20.9414
-53.1166
-23.9473
-7.29075
3.09296
-10.2162
-30.1608
-20.4817
-7.0194
4.8647
-9.59847
-28.2946
-22.3258
-5.70877
1.75515
-5.00385
-29.069
-15.5725
-4.06677
-2.64796
-7.33018
-21.376
-10.5768
-3.83488
-7.32176
-8.67494
-13.5149
-9.38852
-4.5172
-8.24814
-10.8051
-8.18454
-4.66794
-3.5533
-1.47602
-2.67404
-3.63484
-7.75475
-14.1117
-8.90677
-4.16975
-0.900515
-6.94713
-15.9675
-11.9579
-5.196
-1.16105
-8.07635
-19.3916
-11.9454
-3.92737
2.54633
-7.78004
-22.5265
-16.1318
-4.13984
6.34204
-10.0675
-18.6738
-3.99493
-1.29151
-12.3611
-24.6277
-11.1423
-4.08152
-0.507177
-9.06472
-17.1106
-11.1744
-4.13729
-3.99463
-9.44729
-16.6376
-11.9817
-5.04737
-5.68681
-9.42797
-15.6644
-9.73019
-4.16312
-4.7687
-1.72597
-22.7069
-11.9516
-3.14199
-14.7857
-6.64355
-3.59939
-11.0852
-7.19613
-10.5782
-6.87126
-3.55721
-7.3679
-7.23247
-10.2566
-8.45618
-4.2529
-5.48562
-7.10684
-12.7398
-9.47378
-4.17801
-3.80371
-7.76256
-14.8926
-9.41399
-4.04336
-0.60334
-9.56047
-10.8892
-4.18569
-4.68454
-10.779
-15.7441
-9.64585
-4.19841
-7.66547
-9.83377
-12.8627
-9.84987
-4.28915
-9.08971
-9.18862
-12.2636
-9.67486
-4.74077
-11.2901
-8.84654
-12.0103
-8.22225
-4.12096
-12.3801
-6.9421
-11.6982
-7.87959
-3.69391
-9.68113
-9.63751
-5.2252
-2.91274
-12.901
-9.10459
-14.1635
-8.3375
-3.90851
-8.11656
-4.37202
-11.2857
-11.8268
-9.1175
-8.03959
-4.64142
-3.86416
-0.227902
-8.83432
-0.897709
-11.9259
-11.8918
-19.7859
-12.3237
-9.24235
-20.2176
-9.93863
-7.91127
-4.61052
-9.99681
-2.98833
-3.90845
-0.270381
-2.61796
-0.338374
-8.44861
9.40826
-3.12995
-6.95414
-4.28526
-11.2666
-11.6544
-7.92316
-21.3984
-2.72418
-6.29382
-3.75442
-2.41313
-0.290744
-3.25028
-0.273821
-3.8707
-4.71924
-10.5432
-11.019
-7.8725
-6.35793
-3.91362
-3.3412
-0.326429
-7.99898
-8.25272
-11.139
-11.4427
-8.90203
-7.73789
-4.59789
-3.84023
-0.151428
-14.2466
-8.09355
-9.68226
-7.90697
-8.28418
-10.9449
-8.23582
-9.9684
-11.2196
-8.88035
-10.8515
-9.63283
-7.77421
-4.74046
-8.45038
-5.51466
-4.00829
-0.221036
-4.20909
-0.686008
-8.92243
-7.70704
-6.91816
-7.22581
-8.06127
-9.96509
-7.92302
-10.7478
-10.8403
-9.97155
-12.1384
-10.9192
-8.83517
-5.90791
-9.83978
-6.40824
-4.45019
-0.701492
-4.74529
-0.843818
-12.0851
-7.12605
-6.62575
-6.78882
-5.44636
-5.96847
-7.45365
-11.1069
-7.83633
-10.1595
-7.78392
-11.3955
-9.66344
-11.9388
-9.88344
-12.8789
-11.819
-14.4559
-13.2221
-5.49132
-7.79616
-4.95102
-9.57915
-7.04934
-10.3056
-7.33421
-3.69455
-0.533179
-4.12289
-1.58143
-4.20781
-1.65068
-6.82392
-4.76641
-0.679252
-4.0994
-4.77348
-1.23146
-0.0276828
-12.2373
-8.73454
-20.1396
-8.1237
-12.4004
-13.4292
-23.4181
-10.1629
-20.4713
-11.2387
-14.2638
-12.2779
-24.3205
-13.953
-5.11819
-5.61076
-3.74937
-8.66023
-6.7954
-6.11913
-3.9614
-0.632861
-2.85468
-0.587946
-4.31039
-1.83071
-3.18369
-1.42166
4.52274
-7.86088
-3.02664
1.03231
9.82002
-0.59158
-1.29687
-4.54401
-10.988
-2.5855
-4.28187
-12.3473
-11.6339
-8.60783
-16.0936
-13.248
-11.6252
-2.90226
-6.1684
-4.15283
-19.8669
-4.96979
-8.88841
-5.67286
-0.485223
-3.24838
-0.584582
-3.76447
-1.48249
-4.12726
-1.82856
-3.9651
-4.09225
-1.30403
-2.54519
-1.94987
-3.01954
-10.5195
-4.30242
-7.78945
-5.75602
-10.4107
-5.62339
-8.43685
-8.94336
-8.34227
-7.4547
-13.1959
-12.0182
-10.5874
-9.77758
-4.30393
-6.60041
-4.38251
-8.16006
-5.77931
-8.41819
-6.38222
-0.615052
-3.81573
-0.338043
-3.98863
-1.71374
-4.16167
-1.76658
-1.82678
-2.89816
-2.94037
-2.9746
-7.38835
-4.64594
-6.82346
-3.83472
-7.05714
-7.23632
-9.29242
-9.46603
-8.4224
-8.75292
-4.479
-8.00564
-6.14962
-8.07412
-5.72345
-0.323894
-3.81981
-1.55909
-4.41696
-0.791215
-3.34925
-2.99242
-5.15234
-2.8373
-3.74753
-6.82287
-3.18068
-6.56282
-8.14568
-8.31961
-7.91448
-7.5714
-7.71336
-5.39438
-6.55205
-4.72539
-4.2306
-0.744219
-3.79461
-0.625424
-5.8043
-2.76229
-3.10076
-7.40311
-8.07278
-7.43572
-6.73097
-4.39198
-3.81912
-0.357983
-7.78805
12.5821
-4.6672
-3.2553
-2.73391
-0.517507
-12.5211
-7.91646
-6.1833
-2.22748
-6.16249
-6.04776
-8.1957
-11.6426
-11.5352
-9.21091
-14.0145
-12.0359
-9.71999
-13.1538
-15.3054
-12.9524
-7.60522
-4.79752
-2.01709
-4.10233
-7.94885
-5.22302
-3.68633
-0.486031
-3.11082
-0.578401
-3.41287
-1.36231
-7.82719
-7.53228
-7.23233
-5.85909
-5.92504
-4.78732
-5.83338
-10.9781
-8.48744
-10.3097
-8.86804
-12.7766
-8.65074
-12.2755
-9.89767
-11.8682
-11.463
-14.5023
-13.2747
-14.6107
-13.631
-5.30881
-8.82125
-6.83176
-9.44858
-6.72458
-10.6741
-7.67108
-0.667751
-3.8605
-1.54076
-4.30625
-1.83934
-4.50677
-1.80944
-13.7423
-13.3816
-24.1928
-8.19912
-16.8701
-6.36483
-33.3189
-14.7366
-25.396
-14.9701
-20.7665
-18.7376
-34.0229
-22.1364
-4.19739
-13.6385
-7.44103
-3.14643
-18.6303
-17.3311
-14.6534
-13.2443
-24.9243
-21.0226
-19.559
-1.51271
-2.8502
-2.34165
2.85669
0.52615
1.6937
0.568113
-2.20522
1.34489
0.577286
2.69861
3.52513
-7.44071
-4.14029
-9.69683
-1.27196
-16.194
-8.16922
-12.2574
-11.1829
-16.3314
-9.76282
-4.70868
-8.09051
-5.59789
-5.14748
-4.9085
-0.713953
-3.80013
-1.67817
-3.3785
-0.679898
2.69618
6.50887
0.990325
-18.03
0.777304
-10.1203
-18.3503
-10.1716
-11.1291
-7.19352
-8.03776
-2.59329
-5.24084
-2.58798
-2.28314
-0.566423
-2.2767
-0.358903
-11.2478
-9.57562
-10.193
-12.3713
-12.9821
-10.2223
-8.45692
-4.99061
-3.79022
-0.617635
-6.11935
-1.14595
-9.6082
-8.95463
-5.67209
-6.33202
20.4538
-10.4618
-13.0832
-9.93772
-18.3581
-36.7469
-14.026
-11.9929
-18.7629
-12.8259
-0.486944
-3.85418
-7.81874
-5.42159
-7.58982
-5.44889
-2.92698
-0.57362
-3.28958
-1.31008
-3.48826
-1.47124
-8.0231
-17.3079
-9.07734
-21.5122
-4.56354
-29.556
-17.9468
-13.8502
-21.6137
-12.8349
-28.08
-19.2894
-22.1445
-6.59029
-35.839
-13.902
-33.9454
-9.92096
-66.0426
-25.5618
-36.3642
-24.7864
-41.1896
-38.4869
-60.9885
-47.9187
-3.38722
-21.9576
-2.17732
-3.39967
-39.998
-27.7617
-24.7987
-24.2423
-52.8903
-45.3207
-42.3665
-13.078
-0.251632
-17.3435
2.09671
-21.5549
5.72441
-17.8879
-13.5158
-17.5497
-10.1058
-24.5603
-21.8654
-19.2072
-15.3691
8.62847
-2.81981
2.09516
6.58204
7.11229
3.6912
3.31547
0.632667
-8.98097
3.00681
-13.0672
-0.348249
-6.37868
-10.7537
-10.8161
-8.0026
-16.413
-14.0362
-10.3055
-9.97225
-3.45686
-4.99824
-3.23826
-9.71722
-5.61885
-7.09931
-5.36615
-1.13865
-2.5167
-0.630993
-3.91487
-1.67719
-3.82815
-1.80307
1.78297
2.07367
1.65943
0.806359
-8.16605
0.236221
-5.67741
0.416718
-3.68091
-6.96827
-7.6488
-7.93788
-4.59348
-5.90538
-3.23532
-7.08012
-4.67236
-5.27275
-4.32006
-0.403213
-3.83683
-0.79089
-3.6374
-0.404347
-13.5666
-10.4213
-10.2551
-11.3837
-11.7784
-9.85139
-8.474
-5.40211
-4.08287
-0.589545
-10.2713
-9.54662
-11.7653
-10.2206
-8.72772
-9.14987
-10.4769
-11.7268
-10.4168
-11.7448
-10.7241
-12.7979
-12.7987
-11.4666
-12.0643
-10.3644
-13.9515
-12.6255
-8.61261
-6.35823
-8.88424
-5.68306
-9.55915
-6.89805
-3.71845
-1.45961
-4.17147
-0.643926
-3.88697
-1.49059
-22.0146
-7.29575
-33.8442
-11.4701
-21.8203
-8.08879
-37.4973
-16.2256
-30.1236
-25.236
-25.7278
-22.8469
-39.6795
-30.3794
-30.584
-11.4001
-27.9894
-4.49692
-47.0426
-8.83747
-54.2638
-20.2664
-30.348
-30.2295
-47.232
-32.4935
-63.8571
-54.4968
-57.8936
-8.34913
-77.5021
-110.447
-159.96
-90.928
-179.161
-61.1366
-71.2251
-60.3928
-149.262
-111.484
-179.543
-111.746
-9.62108
-53.4084
-63.215
-84.0938
-161.944
-66.2006
-60.5249
-57.8239
-111.97
-174.423
-126.349
-21.9484
2.33066
-24.5095
0.611635
-64.6496
45.7975
-40.042
-28.9774
-30.3537
-81.4725
-125.1
-74.2674
-26.0325
4.39942
-17.0561
16.8803
-51.3242
4.75328
-16.8868
-23.7919
-20.4094
-18.1481
-49.2889
-56.5129
-21.456
-26.1881
2.83812
-4.23506
1.17575
5.52363
3.78709
2.76795
2.44085
-3.86768
0.34366
-3.07218
0.717091
-4.33503
0.88041
-2.26581
-8.60574
-4.93076
-6.24847
-9.10403
-10.4262
-6.58627
-7.89942
-5.86004
-5.4776
-4.60024
-10.0433
-7.43288
-8.0083
-6.64773
-1.83838
-3.57374
-0.674531
-5.02359
-2.23793
-4.22624
-1.86334
0.846713
1.2881
1.55708
-3.37793
0.913139
-3.16242
-5.77756
-5.45339
-6.82359
-4.35316
-6.94477
-4.95437
-0.428864
-3.97252
-0.814651
-10.7436
-12.8841
-12.9769
-9.12085
-8.66079
-4.66304
-4.29962
-0.0263637
-12.2248
-10.3157
-15.8206
-10.2788
-8.88251
-9.76616
-10.4401
-11.6927
-10.4682
-12.7255
-10.9311
-12.4818
-12.0922
-10.3874
-12.8178
-9.23065
-13.3696
-12.0145
-8.90829
-5.73232
-8.43113
-4.69602
-8.9746
-6.33484
-4.28127
-0.656865
-4.12663
-0.14267
-3.61282
-1.33257
-53.3097
-11.6516
-72.6409
-42.168
-98.5095
-76.5879
-153.957
-41.3201
-78.1199
-86.8671
-110.784
-87.8617
-163.61
-164.001
-85.1939
-85.5387
-107.815
-0.410098
-108.753
-122.213
-113.688
-146.345
-165.243
-161.838
-131.552
-131.377
-121.225
-89.3516
-173.332
-127.394
433.532
435.941
-171.558
-191.782
-144.094
-133.619
-131.069
435.291
-44.9731
-104.597
-46.0319
-101.537
-32.1635
-27.0131
-3.70572
-18.2221
-5.31355
-16.5562
-2.74518
-15.6315
-1.33049
-103.109
139.693
-172.862
333.516
429.282
345.225
424.879
-182.524
-148.5
-183.789
434.971
435.976
432.344
434.996
-132.433
-184.963
-109.265
435.269
387.467
434.654
364.369
-49.2975
-100.217
-47.7076
417.666
-25.0331
441.52
-6.28031
-25.1432
-5.0613
-18.3374
-1.62453
-0.385818
-124.764
123.985
-126.744
345.402
425.053
338.569
423.587
-120.19
-166.356
432.056
434.334
431.547
434.251
-108.783
-181.313
-142.125
434.087
400.771
433.679
359.365
-50.8737
-116.179
-67.3521
427.302
405.028
-46.9669
-6.69951
-32.0398
-7.60378
0.616543
-33.4786
-1.17461
-162.709
-60.5437
-124.01
431.371
434.36
429.853
-156.233
-148.725
-167.581
433.818
385.106
-140.746
-72.8035
-136.236
-83.6729
416.116
-48.4745
-131.935
-65.0997
-8.1241
-41.9147
-8.03899
-36.6551
-1.83423
-34.7132
-1.33571
-83.7182
-55.9658
-84.2474
-113.034
-86.5743
-93.4744
-166.481
-118.974
-160.928
-120.378
-142.197
-93.5287
-127.179
36.7718
49.4121
37.7218
104.455
21.5667
71.8187
27.8904
-69.2431
20.6646
-67.1616
-15.9456
-76.2198
-158.042
-62.1016
-84.8693
-94.5806
-173.4
-88.5018
-80.5019
-59.9174
-119.356
-112.45
-184.838
-90.9877
-39.5878
2.26668
-17.9198
-15.0793
-51.3934
-4.02314
-32.5491
-66.7346
-30.0138
-39.2986
-88.7222
-125.612
-50.4134
-65.093
1.92006
4.82597
3.27435
1.58297
1.90243
-1.91443
0.954215
-3.2022
0.785188
-3.88976
-7.31076
-7.61504
-8.61523
-5.6646
-6.56388
-5.88638
-8.25839
-6.47518
-5.85172
-4.38194
-1.73204
-4.22192
-1.83243
-3.46821
-0.688495
0.358522
1.53062
0.936472
-4.44674
-5.42491
-6.06206
-5.08166
-3.97431
-3.43927
-0.336002
-16.4178
-10.8513
-8.47018
-6.58224
-11.0219
-13.3074
-11.4211
-18.2211
-13.3432
-8.97102
-17.9806
-10.3467
-8.16963
-4.33015
-6.15369
-4.02495
-4.87083
-0.0938164
-3.1276
-0.525988
-9.90968
-7.81155
-8.81023
-7.16737
-7.88091
-5.42234
-7.55976
-13.4723
-11.545
-14.1658
-12.2148
-16.9974
-12.3769
-16.7652
-10.4316
-15.3879
-13.6744
-16.6796
-13.0965
-17.8088
-15.2461
-5.05041
-9.89914
-6.98673
-6.94765
-5.24832
-9.37886
-6.4918
-0.516789
-3.98988
-1.5409
-3.25577
-1.30077
-3.99131
-1.61942
-159.641
-102.52
-150.364
-85.808
-208.987
438.317
-139.362
-176.853
-167.688
-217.615
-154.048
-130.281
-151.793
-127.687
437.939
438.422
431.76
435.965
-165.579
-134.398
-123.54
438.248
-124.16
434.23
375.165
-38.2761
-108.829
-35.6825
-99.1742
-21.6198
423.665
319.333
-2.86092
-17.6718
-0.119444
-10.0273
-0.534417
316.82
433.076
436.273
432.317
434.861
429.603
433.002
-122.292
435.352
459.946
432.972
405.388
432.189
415.023
-28.6943
424.556
406.712
316.697
418.728
347.851
0.47561
-13.2741
0.28769
318.579
19.1541
277.145
8.12915
435.459
431.224
433.12
426.878
431.714
425.987
430.341
401.895
434.626
342.655
431.86
412.445
431.017
441.334
449.979
351.996
438.827
313.211
443.511
248.75
0.201305
329.912
1.18958
245.901
2.25885
305.521
0.621755
432.374
430.683
434.001
425.171
429.667
424.676
429.361
403.08
433.133
391.164
431.001
433.541
429.096
474.074
323.549
411.13
325.487
424.503
299.768
371.119
293.793
1.44593
1.24263
299.269
296.139
6.75463
433.929
429.785
433.771
425.575
430.021
427.75
431.206
373.308
433.161
-138.908
429.578
414.729
429.045
376.614
-127.457
-52.3928
352.482
225.949
410.754
278.694
0.732858
-36.2907
0.25973
239.148
5.85111
314.998
-9.13915
433.571
-91.3098
425.538
431.623
431.038
432.778
-138.612
-110.148
431.101
549.155
431.999
410.391
-55.0151
-96.0342
-82.3011
403.443
323.266
395.562
-59.6454
-0.247549
-55.8256
-4.34565
304.779
-14.7752
-40.7216
1.84251
-79.576
-81.4786
428.568
433.046
-70.2449
-100.039
-111.586
-160.06
432.585
409.937
-111.145
-152.768
-104.96
-169.948
-114.817
-66.6254
-146.546
-111.399
2.01146
5.57398
4.59071
-4.81674
0.825563
-10.4549
-6.52863
-11.6348
-8.04554
-3.96558
-4.96334
-3.27207
-0.659728
-3.01347
-0.681685
-6.52841
-5.58173
-4.68497
-3.1544
-10.7374
-20.5704
-5.43832
-16.6238
-19.7409
-8.11349
-17.2071
-12.7894
-3.05662
-3.79205
-8.58693
-4.54246
-2.8432
-0.586341
-3.56534
-0.670027
-4.56958
-2.52777
-5.98799
-2.10779
-2.03396
0.562368
0.872233
-20.5833
-11.0304
-22.4582
-5.15715
-17.1397
-5.68837
-25.4702
-10.1714
-22.2967
-16.1571
-17.913
-14.2195
-26.8803
-11.7429
-4.75218
-12.0383
-5.56382
-10.8926
-5.14242
-5.34091
-7.30443
-23.5355
-14.4049
-30.7782
-7.20317
-27.6863
-16.5167
-18.7402
-33.8735
-28.4269
-28.743
-12.7676
-38.167
-34.9596
-29.2772
-53.9265
-16.965
-60.756
-39.048
-119.703
-39.1042
-64.0495
-55.3935
-56.4471
-45.3128
-127.04
-76.9972
-129.957
-124.629
-185.989
-70.0563
-157.039
-136.152
-189.756
-93.0954
-210.532
-148.858
-167.791
-133.014
-201.501
-131.472
-203.993
438.031
438.745
-194.102
433.318
437.542
-137.427
438.417
-121.04
-197.446
-114.599
436.93
458.769
-28.3732
-95.978
-21.1466
-79.9081
-20.3639
406.246
295.928
-3.67657
-9.78216
-0.617313
-12.7039
-0.236883
308.279
-2.50778
435.363
417.132
436.267
371.025
435.896
385.906
-18.5351
433.209
316.707
352.818
275.394
380.343
154.593
0.000984984
306.492
305.488
-8.47038
285.12
-0.0330297
422.361
432.435
361.072
435.912
411.159
433.209
452.747
311.483
417.314
301.446
419.863
271.928
439.573
254.842
2.14978
335.678
7.46826
290.169
-1.40256
240.481
-84.9647
413.83
431.077
439.364
431.85
557.586
430.636
620.642
320.609
442.385
223.714
423.649
255.894
432.303
278.341
-0.635719
305.537
4.29254
147.785
272.428
-32.1567
429.563
429.186
416.08
431.629
466.77
431.106
426.953
275.381
365.074
306.782
427.75
3.33708
436.505
198.019
269.109
1.78286
196.074
-70.6525
376.08
429.877
441.346
430.732
443.487
430.587
423.747
276.072
423.33
299.514
450.627
231.661
385.588
230.086
5.64235
337.282
-3.63347
165.166
266.875
-1.43669
410.572
431.924
408.124
430.154
209.861
428.362
408.639
293.203
417.135
399.871
146.052
429.786
287.483
-27.791
2.18255
274.614
0.271316
258.328
-3.52834
433.02
-64.0666
-103.213
429.39
429.053
428.254
432.609
419.54
-115.858
-145.909
428.805
409.181
431.664
-61.6257
-138.546
-92.3545
430.279
287.305
-141.899
-71.003
1.77419
-63.3931
-4.66784
317.743
-4.85615
-51.8286
-3.38494
-105.455
-67.3379
-115.657
427.272
-57.2127
-127.668
-153.875
-139.078
-156.276
-150.418
-141.424
-161.302
-105.665
-143.279
-101.636
-145.381
-86.1225
-163.997
-113.029
-57.4242
-3.67269
-29.5087
-40.8796
-122.508
10.7078
-58.818
-103.947
-44.4326
-55.2384
-129.568
-156.07
-58.5882
-68.9798
-18.1737
2.08648
-15.6427
18.0269
-50.7305
13.0793
-33.0064
-18.876
-19.4487
-51.4722
-51.2112
-29.4782
-14.685
4.19545
-12.298
7.216
-28.8865
7.23
-13.6757
-16.7515
-13.1488
-9.94555
-26.7251
-24.3474
-16.5599
-13.055
7.06693
8.15294
8.50282
0.50654
4.49112
-13.5337
5.54717
-10.3693
3.03612
-6.88039
-8.95215
-12.8979
-11.5841
-8.79298
-7.24553
-2.73423
-8.60008
-3.13202
-4.54611
-2.79823
-1.3937
-2.88836
-1.35916
-2.38688
-0.553173
4.20856
2.87114
-6.37801
-7.50387
-6.3364
-4.75402
-2.83919
-2.47437
-0.212791
-5.01808
-5.01431
-6.78381
-5.96479
-5.92279
-8.25352
-12.0586
-6.781
-9.5356
-7.53606
-10.4157
-13.7449
-11.9073
-10.0351
-8.21147
-12.7054
-11.6049
-7.51707
-5.16544
-7.3779
-4.67919
-8.50257
-6.13275
-3.41393
-1.47966
-4.10922
-0.0606451
-3.88931
-1.62459
-16.3102
-5.39102
-20.83
-6.81831
-11.5451
-7.24865
-14.1724
-14.8448
-21.8605
-15.7354
-14.9448
-14.3235
-18.9828
-17.2249
-24.3418
-6.01819
-18.5985
-10.2157
-27.7978
-16.776
-25.0895
-23.9015
-34.9072
-31.0234
-38.9925
-139.6
-13.6046
-48.9906
-57.79
-145.021
-140.852
-72.7461
-52.8949
-47.8525
-149.886
-111.956
-32.8823
232.095
-136.492
109.877
-62.302
310.325
432.434
-162.159
-138.054
-190.74
-90.2703
-165.579
436.352
439.078
-102.277
-192.942
-127.342
-165.442
-122.538
438.684
-35.3247
-88.7134
-23.9861
-96.7342
-47.9272
-33.8233
-4.55443
-14.4664
-3.66935
-17.323
-4.70348
-18.2226
-1.86933
-191.582
435.01
436.653
436.507
438.654
433.192
435.933
-114.286
436.424
402.524
437.933
421.269
435.158
420.78
-17.7472
405.664
293.095
430.471
-23.9742
427.212
219.105
-1.31636
296.267
6.00907
-16.4936
-1.28943
274.166
1.72374
557.517
434.575
426.5
435.152
357.85
434.544
361.258
269.757
414.206
251.562
416.082
280.541
443.872
45.2499
4.26917
316.324
312.216
4.75513
228.785
-110.483
384.09
436.26
417.047
434.718
438.441
428.969
491.259
199.628
439.691
260.083
437.252
144.118
407.369
166.14
0.492786
362.709
-41.6691
209.547
330.974
582.174
429.724
594.053
426.296
439.464
419.975
373.204
219.838
431.726
211.63
349.913
162.666
331.486
271.729
-48.416
236.266
-26.723
230.163
272.488
506.628
415.933
412.022
415.538
410.111
414.533
411.131
413.428
427.935
420.979
428.371
417.888
420.167
418.296
421.104
471.825
430.231
490.596
419.226
373.654
420.381
353.134
175.344
452.524
73.2044
334.266
269.674
278.501
249.857
170.32
267.824
465.691
244.281
725.035
453.761
432.064
209.362
423.94
393.82
428.096
426.091
209.039
394.755
195.533
269.898
184.745
439.919
233.03
379.359
-2.89216
216.177
686.182
256.44
388.416
427.601
409.581
429.288
546.49
427.978
401.863
181.841
426.933
328.017
438.454
228.184
426.001
208.528
-28.3583
286.353
-1.27587
309.454
235.644
-2.78384
429.01
430.776
432.522
424.153
427.93
429.919
431.397
438.757
431.608
427.547
443.633
430.641
358.116
304.957
-68.7391
423.965
235.176
343.48
299.74
-8.86987
-50.098
-1.03504
261.904
-26.7355
301.561
1.25704
417.533
172.885
-0.476906
331.049
418.516
188.328
-71.178
432.747
-79.1469
-132.238
431.777
433.201
-78.5123
-101.162
-153.007
-134.838
-167.662
431.987
325.259
-105.423
-147.639
-80.0684
-173.018
-104.195
388.91
304.231
-161.109
-84.4219
-2.65268
-50.0642
-12.0713
0.419969
-45.7897
-9.89809
-132.01
29.8822
-53.2312
-95.2135
7.8934
-68.6248
-168.306
-81.4814
-111.726
-157.272
-87.2099
-116.17
11.281
-27.3809
11.1501
-43.1655
4.48141
-15.1215
-27.5208
-27.0973
-56.0954
-72.346
-26.8774
-32.1865
-18.13
4.06474
-11.2717
4.41827
-8.14868
3.20242
-5.72928
-21.3446
-13.745
-13.2919
-17.407
-20.0752
-12.4259
-14.6142
6.36051
0.635453
4.11035
7.39571
5.83388
2.77578
3.16912
-6.15329
2.0118
-5.78066
2.06347
-3.9702
1.96166
-2.83717
-10.423
-7.59505
-7.04785
-8.62316
-9.74755
-4.79745
-6.36914
-5.35023
-5.28121
-3.61126
-8.65993
-6.33999
-5.79573
-4.25267
-1.92753
-2.88694
-0.607146
-4.48385
-1.97226
-3.30679
-0.749354
3.58303
-0.0836552
2.79218
-5.60324
2.20435
-3.02452
-5.98141
-4.0723
-5.61596
-3.24013
-5.30703
-4.03075
-0.423244
-3.42865
-0.486344
-8.64214
-9.42333
-7.92598
-7.23965
-4.7427
-3.86665
-0.106718
-6.79187
-5.36003
-5.74307
-13.433
-6.6951
-5.0293
-5.55223
-9.26789
-6.81919
-9.57545
-6.63228
-8.73213
-6.56975
-9.19548
-8.27158
-12.5569
-11.5532
-9.68624
-8.7311
-12.3788
-11.5253
-4.78547
-9.25536
-6.85545
-7.4776
-5.15924
-9.45856
-7.08961
-0.137688
-4.12176
-1.65048
-3.81358
-0.578034
-4.20002
-1.68888
-167.381
437.1
438.939
-62.9528
-147.407
438.138
438.567
-119.152
438.524
-162.329
-130.42
438.153
430.178
-49.6806
-33.2167
-101.697
-49.8395
435.328