/*--------------------------------*- C++ -*----------------------------------*\
| =========                 |                                                 |
| \\      /  F ield         | OpenFOAM: The Open Source CFD Toolbox           |
|  \\    /   O peration     | Version:  4.0                                   |
|   \\  /    A nd           | Web:      www.OpenFOAM.org                      |
|    \\/     M anipulation  |                                                 |
\*---------------------------------------------------------------------------*/
FoamFile
{
    version     2.0;
    format      ascii;
    class       volScalarField;
    location    "12";
    object      p;
}
// * * * * * * * * * * * * * * * * * * * * * * * * * * * * * * * * * * * * * //

dimensions      [0 2 -2 0 0 0 0];

internalField   nonuniform List<scalar> 
146404
(
36.3335
15.1157
51.236
67.8262
58.0029
34.67
13.8527
60.1839
78.16
22.9009
13.8687
53.8711
72.8369
58.6889
35.0623
12.8897
59.6754
36.0627
14.4416
54.2039
65.8771
53.2378
34.5488
14.3089
58.3999
64.7712
54.3465
33.4896
10.1788
60.9734
62.7109
52.3963
31.8872
11.3554
61.265
67.5561
57.7835
33.2296
6.76831
64.0985
76.2809
22.0119
5.23864
62.9624
65.7029
61.5395
29.2226
9.21178
63.1396
67.7221
63.4512
36.4991
8.68054
64.1121
71.4931
57.8154
35.9552
14.621
60.093
74.5566
56.004
37.5967
14.8701
58.6585
30.1727
13.2534
59.3819
64.6864
52.9815
33.7362
7.1507
59.3582
58.1801
49.4395
32.6419
10.5497
61.4962
56.0783
48.0955
34.1463
10.5947
62.7667
58.2686
48.5425
31.3869
3.82932
65.8924
68.1006
15.0015
2.66437
66.0211
59.1399
53.0875
29.1802
8.63991
69.7203
58.4635
54.1461
38.1114
12.8163
65.9916
62.4214
58.4164
38.9733
7.60432
64.3136
69.7481
56.4015
36.5592
12.4338
61.0175
75.3463
34.1126
13.7871
64.7161
52.6696
34.7961
12.9076
54.7266
61.5594
52.9399
26.6722
8.48061
57.902
63.5673
48.3717
27.9703
5.49915
59.7523
62.5952
46.815
30.8265
4.0389
62.4771
48.6677
43.6832
30.0345
6.3281
75.3737
44.3588
40.0482
24.2335
6.61637
85.0457
43.6925
30.7725
23.798
3.23154
94.6945
75.9517
13.2328
2.732
86.5128
50.2777
39.8639
25.1158
4.05396
76.9215
44.8689
47.2075
35.7138
7.05492
70.435
52.1731
43.3616
30.2082
3.94237
63.2438
64.1309
46.5754
31.9405
4.59075
58.7588
63.5942
50.9521
32.9251
7.3883
54.8804
61.5947
50.9892
30.8341
9.58832
60.7932
50.7398
30.9593
13.4055
50.2618
57.3804
52.8468
29.6912
8.53451
53.7198
53.2339
48.7705
34.3091
12.1135
55.9353
50.0082
46.6273
32.2867
5.75802
68.9696
52.0705
34.8763
24.9928
2.45764
86.9297
45.1381
24.2381
23.7868
3.32985
71.3337
-22.2782
19.077
20.9813
6.12394
70.379
-109.969
10.5961
19.7323
7.15498
97.7451
-93.0714
11.4884
4.61704
75.9252
-113.74
10.0191
21.1704
6.68578
95.8724
-46.8518
19.2691
24.2504
7.52804
87.8266
48.9011
22.8857
25.2772
1.93298
65.5914
50.1762
27.8351
22.4213
3.70875
55.7224
52.4569
41.8406
29.5118
10.7062
53.6775
54.3442
47.9103
28.7988
11.8172
50.4088
58.0814
49.3604
27.5131
10.9947
44.7239
58.5444
48.6103
32.873
12.6445
50.5515
50.7697
51.8668
28.4983
9.44961
55.5501
50.4469
43.5931
31.2664
9.68879
64.9541
38.7162
36.9321
28.7362
8.56768
89.4474
-3.38957
23.8356
21.7535
5.58303
67.8862
-72.8414
9.98709
21.3824
5.45948
239.185
352.659
14.499
5.30127
299.322
355.559
346.817
305.649
305.41
353.123
346.705
323.153
188.696
293.603
354.287
349.241
318.812
235.186
344.05
18.0759
4.61338
124.482
4.87256
3.75117
89.8443
14.6338
12.7701
17.7969
6.45097
58.4014
49.2083
34.9291
25.1027
8.32721
51.843
45.1675
43.6999
28.2065
9.13014
51.8936
55.5215
51.7374
31.0106
8.22659
47.6429
59.4253
47.2421
32.2158
10.8397
50.6274
56.4219
45.4622
33.9217
11.748
51.1385
52.1139
44.8288
25.0183
4.27247
55.4084
41.4363
35.9312
25.6612
3.2785
79.296
20.5105
26.3806
22.8808
6.17909
64.6861
-115.646
13.1727
19.1851
5.90398
288.738
354.108
349.942
3.59954
327.223
346.34
345.364
287.168
167.618
331.649
343.183
344.937
321.762
191.779
331.4
342.907
346.001
322.142
162.234
325.991
343.603
346.217
314.62
214.482
306.685
346.934
348.356
295.017
163.199
265.19
353.678
352.2
338.251
3.36785
133.834
-156.117
-19.6111
12.6605
3.95098
65.8961
28.1834
16.0617
16.4811
1.41434
52.3147
49.6346
33.9095
23.52
2.80367
50.2764
56.2878
45.6464
26.7566
4.63314
50.0638
60.9631
47.1387
30.0092
9.35237
52.2701
59.8877
42.6417
29.5175
6.79295
52.4675
59.5671
40.8027
26.7874
4.20791
66.5596
16.5321
2.48898
77.3569
-3.67433
16.4638
17.9765
5.22571
236.588
11.9564
14.0805
4.8248
328.288
346.953
347.216
280.523
149.439
334.332
342.322
348.422
261.316
163.51
333.804
341.18
348.48
318.688
210.292
334.734
340.829
343.636
320.021
141.572
334.037
340.927
348.481
344.624
251.984
326.248
342.218
348.567
258.98
269.93
304.332
348.069
346.037
319.634
178.022
230.025
340.41
354.116
7.83478
2.31097
85.6195
-31.8108
-4.86901
8.19115
0.690541
53.8186
111.054
-2.77686
2.24986
49.7259
55.7954
35.4003
21.7956
5.30746
50.0454
59.0915
41.9616
28.6249
6.88959
59.0013
44.2205
28.0497
11.3402
58.7549
48.1734
32.0417
13.8672
53.4974
53.5065
46.7869
30.1319
9.60555
57.0704
50.7378
43.8631
31.098
7.97766
73.2796
41.9027
32.9874
25.8783
2.98941
57.3718
-63.9679
3.56848
17.813
6.26184
300.942
354.735
347.205
337.17
3.68552
333.824
345.347
346.607
276.239
139.4
335.055
342.182
347.429
335.015
151.686
334.671
343.531
326.442
243.428
181.907
327.986
343.146
334.904
285.014
213.805
335.89
343.036
330.583
247.948
196.253
331.771
342.214
348.401
335.61
122.632
318.044
343.185
347.835
305.358
144.797
269.979
356.832
353.968
289.203
177.373
100.948
-138.008
-2.31766
11.6914
3.25578
54.2745
44.9846
34.9332
22.3603
7.5239
51.1143
46.9916
41.4135
27.9403
10.4884
48.6791
51.9045
46.4009
27.5654
11.0317
41.8343
58.0856
43.2767
31.8617
11.9191
42.1227
57.1819
47.9054
31.9101
13.2725
54.1343
53.5525
46.2035
28.9537
9.21178
57.8912
51.4796
43.2324
28.862
8.14874
77.4043
40.6314
38.975
28.5905
3.16995
71.6064
-115.113
5.73905
21.2673
6.73658
305.942
356.099
347.956
314.948
334.381
346.645
347.226
331.536
216.818
336.496
343.048
354.454
325.203
128.077
331.253
346.671
341.314
277.855
226.179
330.906
343.792
342.05
295.27
234.455
330.876
346.356
336.745
285.812
226.736
333.064
342.994
346.354
355.778
155.57
321.873
342.873
350.033
340.523
158.054
277.541
354.071
355.485
325.153
182.056
114.511
-145.028
-4.10489
16.4786
6.31225
56.8986
47.4895
37.9204
24.0757
7.64134
52.4023
47.594
41.1634
28.1994
11.1715
47.5139
47.1563
47.5736
28.7684
11.4384
40.6884
52.7769
45.3209
29.9313
11.9544
59.6879
49.9114
33.1438
12.6744
54.1112
57.7435
49.332
31.6962
6.11641
56.1261
53.0475
45.4317
29.5728
3.90994
74.6217
42.9032
32.5605
21.9409
1.79222
79.1281
-52.8122
10.1404
19.3592
4.88091
293.401
354.752
350.811
299.261
4.3531
330.437
347.101
348.453
312.212
162.761
337.412
345.018
353.765
334.133
152.303
337.927
345.149
337.238
254.849
179.134
334.214
347.564
328.976
283.258
222.496
336.919
345.02
334.278
263.902
211.266
330.964
344.84
353.023
332.05
90.4628
317.881
346.634
350.513
259.408
165.517
259.879
358.139
355.327
330.427
199.762
92.7186
-110.251
-5.95202
13.9679
1.28391
55.8588
37.7926
18.9771
19.7252
2.65621
50.8941
46.2123
43.4016
28.2124
5.01062
47.1208
52.4465
49.3888
27.2389
8.23955
39.714
56.7308
44.5901
29.7428
14.1384
54.9362
64.1376
48.2884
32.5819
9.83261
55.9372
58.5448
43.2685
25.7546
4.00002
63.7078
20.0895
2.3705
80.7711
10.4604
21.0731
16.8054
2.8862
220.521
13.1363
12.7251
4.90854
310.596
352.706
349.411
322.231
171.676
331.315
347.226
352.442
328.363
131.642
335.947
346.859
352.108
344.524
265.84
336.523
348.057
362.713
334.492
157.885
332.89
347.173
353.937
334.782
180.699
326.98
348.29
351.366
293.656
162.501
302.605
354.917
349.626
272.408
174.32
222.904
349.455
356.094
16.0899
3.27491
80.0926
4.33053
18.2782
17.5526
1.93811
54.2676
61.8759
12.7145
2.6404
49.9657
50.9283
35.2742
21.944
4.18584
46.8637
57.4239
42.5748
28.4789
6.8255
57.9394
43.4097
28.7251
11.4403
52.8433
63.1395
45.6981
28.8075
11.7304
54.6112
57.7037
47.984
29.6545
7.05696
56.6471
48.2394
41.6223
27.445
7.8566
77.3371
31.7023
30.6641
20.7816
6.60526
80.9298
-71.5722
12.0187
16.2432
3.49267
252.659
359.893
353.684
4.42139
307.262
353.349
351.524
316.432
155.463
323.153
350.774
352.523
336.088
138.13
326.389
350.022
358.225
261.151
66.7512
321.781
351.691
352.581
338.237
164.107
303.066
356.595
349.946
310.176
160.502
265.285
358.31
354.779
231.831
4.62
71.3807
-34.0484
26.7528
25.5988
4.72672
60.2093
50.6189
44.9144
28.9473
7.87398
50.9318
48.7566
47.0244
27.3708
7.9313
49.9519
55.0301
49.0907
26.127
8.00488
46.9335
59.4693
45.9619
25.7687
9.86314
46.1517
60.8747
49.6948
30.3621
12.7333
53.6563
55.6088
50.6065
32.5577
10.0794
55.4466
53.1805
44.7967
29.2214
9.9501
60.6791
40.7956
38.9674
26.793
5.56284
86.9199
25.6445
23.8851
21.2071
2.16077
79.0292
-30.8907
10.6615
15.9796
4.74009
204.608
355.4
5.7587
17.318
7.03028
277.119
360.806
356.391
295.078
285.695
363.652
358.428
308.264
203.143
277.028
361.411
356.261
320.575
216.272
353.878
16.1217
5.52439
82.2398
17.4356
2.11957
76.8255
39.5442
31.7892
26.4716
3.8146
56.2282
51.731
47.0725
34.6103
10.365
52.1496
52.7569
49.4877
29.8527
10.1058
49.7903
53.6377
52.6036
26.2028
10.0022
43.8756
58.4943
47.1108
29.4779
10.8749
51.691
61.3824
50.199
33.0456
9.63572
55.1766
55.4208
52.8959
28.5271
9.63638
57.1817
58.0851
44.8878
29.3942
5.40854
63.0652
50.0484
34.1899
25.6751
3.48737
74.8103
39.4298
31.5608
27.8936
5.82263
86.4093
15.1767
34.4599
28.9123
5.91699
81.9409
-16.9322
23.6489
25.1961
7.67369
81.5375
-90.7821
21.2975
7.8813
81.4432
-15.4951
22.8951
24.1618
4.75276
86.9177
26.284
31.3492
27.8671
4.93692
70.6566
43.6134
28.724
21.2343
3.6185
60.8646
53.4115
38.8616
24.0202
4.74266
57.2245
56.4762
51.0793
32.5015
7.45544
53.2713
53.9598
51.6596
29.5916
9.01518
49.8027
56.0796
50.7392
29.1776
10.641
55.4836
62.2355
52.1923
31.5197
10.6411
57.6799
62.5285
49.6452
31.0096
9.71442
58.5363
61.2072
47.1214
34.0098
5.56493
58.3476
56.2377
49.2739
30.2163
8.8416
59.8557
53.3549
48.2015
32.3796
8.6948
69.3173
43.0733
38.8065
29.2626
3.94616
74.0894
30.9962
21.246
4.08219
62.5921
48.5722
43.6839
28.74
8.62277
61.3049
54.6761
48.4495
33.5167
11.2034
61.2457
54.8553
47.9441
30.9576
7.04199
60.7873
64.02
42.9667
28.9431
5.92309
58.305
65.3111
48.1307
32.7258
8.36358
53.935
62.717
48.4096
32.655
10.6824
61.4313
52.4786
33.5569
12.8803
56.3952
35.7775
12.7397
58.4527
64.1509
53.0642
31.6842
9.91387
56.3776
55.8633
50.6655
31.9082
10.5711
56.44
56.9166
48.742
30.0027
10.4013
57.2949
55.4473
50.4789
32.269
6.23909
60.0438
46.8477
22.5457
5.72193
58.7871
56.6421
54.3301
31.4441
10.8937
59.8079
57.4039
51.6534
35.4964
13.2141
59.9992
61.2322
52.3063
33.7852
9.98163
60.7938
66.5419
52.0551
30.1839
8.85347
59.3968
74.3583
48.4579
27.5768
9.61029
49.8514
33.6908
12.268
51.0415
66.2892
49.5857
33.3072
12.0322
53.7124
62.6372
48.7057
34.6691
12.4949
53.4594
57.6005
50.5627
28.814
10.4547
54.5756
61.7633
53.0475
29.9546
7.37106
58.5663
57.9619
24.7761
10.0068
59.0189
65.3741
56.2002
29.9175
11.3041
59.0362
67.0699
54.3259
30.7573
10.1525
58.4917
68.2807
52.217
31.3413
13.0639
55.9356
67.5263
53.9866
31.0655
13.0875
45.2658
64.285
49.3478
32.2138
13.7844
48.3633
59.0073
31.6563
13.7221
49.3255
66.9303
52.2205
32.6949
13.7925
34.0058
16.0966
60.0675
57.2859
40.3832
36.3725
17.9537
14.5566
1.82732
54.499
80.5602
61.1818
74.0855
57.9774
58.0311
39.8466
56.5464
35.2423
36.184
17.9588
29.8128
17.9729
14.4653
1.50926
15.0646
1.69159
54.6769
87.7831
74.2421
76.7484
73.3585
62.2176
59.0057
39.7343
19.8077
18.1412
36.2948
16.042
14.7509
1.79336
12.9914
1.15697
72.756
72.3043
62.4203
59.3973
40.2771
36.8386
16.2507
13.1775
1.16865
66.43
65.8052
57.6066
54.9005
37.3128
33.9932
18.013
14.8866
1.57768
49.4691
66.3539
55.92
64.994
65.6312
57.8188
65.9219
59.6839
54.869
37.4986
53.2529
41.7595
34.2726
18.4265
34.8606
18.9407
15.1702
1.25024
12.9087
2.22423
56.3372
65.2917
58.1447
62.6693
66.8934
60.5339
64.5648
61.8408
53.6698
41.0173
53.7922
41.565
34.4809
18.2741
32.9746
20.8836
12.7129
2.44021
12.56
2.4428
50.7747
68.043
58.7941
60.4139
59.5628
61.2703
67.5819
60.0856
63.7523
65.9827
64.6112
66.7741
39.1102
56.7072
40.9122
55.0095
44.8515
55.857
44.4065
16.9473
34.6366
18.0042
30.8282
22.4818
30.9464
22.5212
13.9018
1.86562
11.6717
4.83665
11.3133
5.08157
68.7647
59.7452
80.4373
60.7456
64.3846
62.1861
72.6901
62.1462
76.1004
58.0485
71.2293
67.6004
70.6705
57.5581
40.7754
55.974
35.6979
55.7914
44.7244
54.211
32.6962
18.5027
34.0047
18.7601
33.5696
20.2579
31.4795
19.5228
1.82088
13.9663
2.11089
9.20917
4.02052
11.2523
5.01703
82.9873
54.2735
73.4418
64.3323
80.3548
63.6153
66.0489
73.5757
62.0651
75.0505
70.0886
63.7225
59.0149
40.0358
28.3279
57.536
41.2502
18.5649
34.3915
16.4941
22.9101
18.073
29.0951
19.6673
2.84385
11.8466
1.81263
10.746
5.21746
8.65697
3.23701
72.7372
72.589
63.6418
65.686
63.5492
65.6916
63.1626
74.2055
63.2026
72.7015
69.5538
71.5664
70.867
40.9805
59.7309
39.7045
59.6966
46.0722
60.8573
46.8028
17.2633
36.1398
17.8431
31.6157
22.3999
32.6435
24.4213
1.89368
14.1728
0.977692
8.60692
3.04729
9.35799
2.99634
62.9156
69.7443
62.0666
72.3412
63.707
73.745
69.5151
74.3013
66.2913
40.2391
60.1658
47.0374
57.969
44.7035
17.944
31.5517
21.0362
37.8617
23.0333
0.900182
10.7788
3.20516
15.2163
2.18787
61.7125
72.0804
57.4933
73.6698
74.3118
65.0791
73.5044
64.175
57.0437
44.4826
58.2146
44.4264
38.5485
23.0717
37.8024
22.9131
15.1853
1.51172
14.0975
1.94298
56.7258
73.3408
73.5489
62.7358
58.611
43.0842
38.0021
20.8797
15.3217
1.37672
53.7294
87.2212
34.044
21.1753
15.1048
1.87282
51.064
66.2264
56.0056
70.3663
58.8225
62.9953
65.9022
56.4673
67.8556
66.456
60.614
52.7116
38.303
34.3773
49.5603
39.0752
33.0717
19.0276
36.4432
20.5953
31.3054
23.7814
14.5067
2.1397
13.4288
2.18574
13.637
4.19108
65.8124
58.6222
61.5001
59.1851
61.0381
58.9848
59.6436
57.4521
64.8542
62.8049
64.9954
62.5181
62.6424
63.1488
39.2668
52.722
43.2851
50.5098
38.4664
54.7694
42.0196
19.6605
34.9228
21.3882
32.0053
24.9878
31.9948
25.33
1.9387
11.9673
4.54851
13.4008
4.88439
12.3201
4.31503
68.2892
67.2434
57.0655
62.9797
62.7889
73.7916
48.7643
46.6707
53.3023
31.8067
54.0008
46.6543
47.121
26.9489
66.8495
62.9645
68.2371
61.3651
58.4592
27.6877
56.7372
40.5341
22.2091
53.0254
36.9435
67.3041
60.7554
72.8653
64.5704
65.6374
64.4679
65.8743
73.6875
64.1026
68.0876
61.1459
73.2079
62.9557
72.6089
66.669
75.0478
57.0333
44.7084
53.9292
44.9296
53.281
42.012
22.9053
36.4335
24.6163
37.5891
23.7522
1.90903
12.3192
3.49898
15.4485
2.19028
60.1518
76.3677
75.441
55.511
65.9188
55.931
52.3844
39.2008
52.9959
38.5508
35.5142
20.692
35.0543
16.7271
14.7646
2.50467
13.7453
1.79938
51.3532
64.3683
64.1664
57.4364
50.2322
36.4154
28.2834
16.225
10.3608
1.98956
55.6116
71.9506
53.2308
64.0434
56.6202
61.1928
93.1078
65.9176
60.379
64.9374
56.7877
16.5258
49.9711
39.7852
50.2557
36.8105
35.6078
19.3512
27.0517
19.8102
29.0938
21.9359
13.4904
2.25534
9.69342
3.28463
10.2399
3.99476
65.2599
58.0478
65.8134
54.0963
65.9821
47.9142
51.3103
39.6782
48.1148
35.734
48.4765
32.7135
56.2223
71.7212
46.4096
49.09
46.6759
60.8905
31.3493
43.9839
44.6387
25.9973
38.9899
36.8043
33.7145
22.1997
58.6954
54.4523
73.7581
51.2024
41.1481
21.1932
49.8183
35.5341
18.0602
39.287
32.4073
63.4671
74.2317
55.3803
67.352
53.2267
67.4275
53.4073
45.5975
53.2958
39.5639
49.896
38.9808
49.9229
33.2509
79.3185
50.9852
65.9741
59.7588
64.876
58.098
63.1607
66.0883
56.8989
66.9378
55.2266
67.0148
60.0255
39.6205
52.591
38.9492
49.5457
36.0769
49.7946
41.4345
21.4224
34.2732
18.8321
32.8483
20.2721
33.7854
21.7079
5.69992
12.8713
2.41497
11.9165
5.21655
9.91943
3.59707
65.0635
55.4191
63.2303
63.3607
57.379
64.4102
57.6395
62.9591
55.6249
38.8873
49.6232
40.1221
51.0963
35.001
16.2244
33.3832
18.5642
31.3636
17.318
1.8875
10.7942
1.9804
13.0927
1.48661
46.6037
60.2406
62.1532
55.1345
50.8314
37.127
31.604
16.1508
12.5888
1.9394
51.824
62.3226
48.4279
59.0357
52.3792
54.2355
63.2379
59.2124
60.4248
56.1791
59.3094
60.5683
51.4195
40.6114
51.1342
39.5165
51.2256
40.6037
26.9824
18.2032
31.1469
15.5241
30.6893
19.9273
8.45512
3.52879
10.9156
2.08489
8.71068
4.15894
55.0084
62.5019
43.8516
58.1995
54.2151
54.5758
43.0918
36.3022
47.9342
26.0696
47.7902
40.5255
40.6482
32.3733
46.0325
53.8301
52.4223
56.2215
37.7421
44.9434
29.9598
29.435
44.9455
36.3296
37.4939
27.6205
31.0289
29.7666
36.9683
62.0044
28.278
-1.60077
10.8725
-33.5498
7.62385
29.5052
31.237
21.2351
19.9142
24.1047
13.5586
17.8293
49.8574
34.8751
-22.2764
-36.1815
9.94067
17.0639
34.4686
30.4154
14.642
15.3861
23.646
48.5039
63.8053
47.5808
48.9793
28.4665
87.6375
39.1746
45.0632
37.0635
30.4724
33.5266
21.2942
48.3078
65.4851
51.2687
60.8544
24.2858
54.112
49.7436
35.8476
45.7804
35.4323
28.4519
23.2947
42.9596
36.1148
57.5906
44.6314
61.637
53.7876
53.2163
52.273
53.4693
60.8106
61.9027
55.5313
54.6566
59.957
56.7394
60.1974
40.635
49.8253
34.9523
51.0035
41.6297
49.9985
39.6186
21.1289
30.429
18.2062
29.5237
23.0896
27.2753
21.5839
3.69528
12.9524
2.20969
10.3205
5.52912
11.9103
5.84218
61.718
49.8958
57.0564
55.0658
57.6554
55.7626
34.7491
48.2694
36.8642
17.7951
27.664
17.8779
1.4141
11.6963
2.64313
57.6534
52.2646
49.8173
35.2515
32.2047
18.2415
14.6003
1.54673
47.5701
58.6949
40.4357
58.848
50.1332
53.4205
59.8689
56.4715
58.1937
52.6813
58.2639
57.5773
51.7957
38.8288
49.9097
35.5996
53.3848
42.531
30.91
16.0483
31.9027
18.1797
29.9714
18.2955
11.8639
2.63823
14.9219
1.08644
9.78202
3.80535
33.998
44.8114
25.6485
29.4338
29.5861
-24.8059
6.60543
27.1945
26.7119
23.5135
30.8901
28.3004
12.4912
18.3884
21.9214
-7.4462
5.94216
33.5479
-130.099
0.104729
25.6016
21.1172
24.0098
14.5971
9.15117
21.1555
-4.91021
-88.6948
-2.3373
2.723
352.731
349.685
23.2999
9.92331
23.5222
6.81485
19.7645
348.141
16.6015
19.8741
16.3602
17.4119
10.7497
7.00523
2.35869
8.03011
3.58719
6.91445
1.6788
5.20703
0.497024
-136.766
96.4585
-213.692
264.006
350.443
276.469
350.403
1.04132
-105.938
4.75509
357.118
349.317
353.9
350.767
23.8341
10.681
18.3262
347.632
281.941
347.852
266.79
12.4009
19.0701
7.7378
315.644
6.59743
345.682
3.59493
4.7042
2.67091
4.96636
0.247359
1.14265
-133.881
80.2672
-184.674
277.079
350.991
268.638
350.978
-124.388
1.8223
353.947
350.803
354.283
351.843
14.3953
11.3164
22.4904
347.813
305.076
350.114
256.061
7.77918
20.2367
10.6316
330.197
299.322
6.55328
2.88812
5.87455
3.37473
1.33807
5.32671
0.698414
0.824943
-57.8019
-2.63767
353.699
351.675
343.236
23.1771
11.9349
25.1266
350.064
281.504
20.254
14.0431
24.8567
17.7537
313.004
6.62399
17.865
9.4728
3.16183
8.29534
2.87258
5.73974
0.358624
5.59801
1.61178
-16.9026
4.59996
1.42796
-5.24223
-154.174
-17.5515
28.8834
20.2105
29.2929
-2.87955
20.8583
-6.90988
19.4691
69.4077
76.4796
68.427
109.873
-22.1778
92.7452
56.2492
18.5793
65.3109
15.8431
19.4632
0.0402265
29.093
21.7901
20.8172
5.23805
18.4647
8.76317
18.6704
7.05394
11.3484
6.84764
16.9796
8.13195
26.2434
48.5273
45.6261
34.275
18.0086
39.6983
37.0529
24.4946
36.6144
33.0699
19.1541
22.2285
30.4148
30.7955
55.7016
51.2417
51.7739
48.3948
57.844
57.9773
55.0439
58.8302
59.5691
54.3491
40.1549
50.6319
40.1614
48.1623
36.3906
22.6212
27.4363
21.5364
31.0829
18.1909
4.76143
10.5502
4.87946
11.7097
1.21446
46.8599
58.6278
58.75
52.6939
48.1441
36.6073
33.1516
16.7071
11.3675
0.374752
39.767
58.8465
46.1703
59.3816
58.1524
52.217
57.1527
48.3856
49.3626
35.7731
45.3558
39.0644
32.3987
17.648
33.8704
18.2335
14.4642
1.34106
12.2516
1.92116
58.1815
50.1285
50.9521
48.3056
54.8778
50.9398
51.5031
52.5871
54.6971
54.6186
57.6057
50.7601
56.2895
54.3052
37.2264
51.6956
44.5605
45.0089
41.1649
49.0943
41.1602
18.4853
31.8043
22.0025
34.076
22.2782
29.9324
21.2257
1.69975
10.3651
3.7232
10.86
2.89266
9.9186
3.57056
8.75936
-69.5707
2.23779
-72.6166
5.27383
347.392
29.0356
13.765
21.506
17.0433
25.9026
18.7687
4.31664
5.5351
349.547
351.919
350.631
350.112
18.9065
9.31818
17.3684
350.486
18.2058
345.462
275.216
10.3368
15.1795
9.43669
18.2473
5.64383
306.093
179.859
2.16308
5.28744
1.33354
3.47223
1.06214
176.883
353.765
350.148
350.904
350.321
347.319
348.226
17.3882
347.654
369.83
344.643
299.711
344.625
308.442
8.56953
321.361
292.245
176.614
304.398
202.258
0.855293
4.63467
-0.0767984
175.387
6.22525
147.766
-1.45423
350.13
352.75
350.202
345.396
348.191
345.068
347.253
306.608
346.783
246.726
344.554
308.775
345.299
341.05
345.014
218.104
327.059
170.117
338.248
132.044
-0.265776
204.66
0.731874
132.114
3.89234
171.41
12.3392
349.927
353.878
351.069
345.227
347.488
344.625
347.606
306.195
348.229
291.153
344.902
332.406
344.895
369.054
198.094
306.312
196.24
323.829
180.699
271.612
187.886
0.666397
0.680115
167.104
188.174
2.37574
351.524
347.342
354.927
346.145
348.347
348.606
350.562
272.974
353.368
20.673
345.836
315.76
346.73
289.4
19.679
6.3932
258.89
116.469
306.24
158.796
0.230544
4.60266
0.762566
136.532
6.86356
177.577
6.06443
355.112
-163.349
344.986
351.748
353.628
354.691
21.3848
16.8604
349.143
437.14
352.175
320.33
7.27741
10.6096
8.25346
303.049
182.258
297.199
4.60924
1.53657
4.6639
2.63761
176.45
7.42218
3.31144
0.319922
-66.0628
-33.5903
346.777
354.518
-151.867
-41.9215
-2.75207
11.8367
352.941
317.198
-21.8806
8.92318
8.37249
15.5617
11.8871
5.48363
11.9212
12.1815
58.6111
49.9543
59.7977
53.8501
61.5787
50.9916
37.0901
45.8002
36.7822
17.1426
31.6266
15.3434
0.984799
9.348
2.06207
48.3607
59.605
49.9623
61.8288
56.3193
48.6527
63.3244
49.2665
46.7548
36.7685
43.3431
34.4668
33.3226
19.0474
30.493
18.7763
12.6614
1.98634
11.3797
2.56582
58.1422
50.8302
52.2105
51.8481
58.9543
53.0213
58.4953
47.578
55.0324
49.3124
61.6767
49.3655
56.2332
43.8547
38.1423
44.9619
34.4838
44.4614
33.5137
41.4477
28.5867
20.0021
28.5857
18.3526
29.056
20.1051
26.4539
16.7239
48.1807
47.0258
46.4852
53.1381
42.4212
40.4523
32.1169
42.3492
32.6895
40.4885
29.3706
18.0859
40.51
35.1553
34.5242
40.6573
25.7783
33.2081
17.3471
33.4885
29.6563
31.0366
30.5479
18.3157
20.5502
22.2919
21.6217
-35.4762
8.91466
16.8408
12.9001
-145.16
2.01453
29.0534
21.5745
26.6275
17.2936
22.8884
11.9856
18.7953
4.98466
349.419
352.135
8.25014
350.653
349.95
25.6629
350.666
17.8862
11.4884
17.0301
347.463
350.865
12.535
18.3103
5.95138
15.0171
9.0983
291.047
165.586
3.02515
3.65066
1.06231
5.06971
1.48883
165.216
-6.77903
346.43
309.064
347.044
267.758
348.612
286.915
5.11345
315.28
180.099
251.614
152.598
277.638
73.6391
0.162538
172.134
163.094
0.496593
164.353
0.593238
317.481
345.592
259.481
349.074
323.243
347.566
338.684
171.739
299.981
171.79
273.651
158.162
326.618
147.465
2.38783
196.185
0.23178
174.075
-2.76319
146.712
-66.3598
308.453
345.732
335.531
346.597
428.614
344.917
507.883
182.19
335.418
126.902
308.087
152.302
327.567
201.686
4.3803
175.368
11.826
57.7325
193.332
-48.818
329.026
345.74
323.114
346.529
357.856
347.627
335.399
163.242
280.624
195.666
319.997
-32.8572
331.494
108.284
165.577
-0.680344
126.991
-75.0051
283.266
347.689
344.789
347.672
331.648
347.804
325.103
172.82
316.498
168.449
343.525
137.075
284.054
165.55
3.94405
189.647
7.64523
111.25
178.084
-3.77066
320.472
350.357
316.805
347.223
121.916
347.78
304.97
158.825
327.654
306.821
102.892
322.418
166.341
1.78091
0.0869612
163.609
-4.98074
147.21
2.81922
354.776
-168.176
-38.0331
353.515
349.874
345.949
355.713
335.117
-21.0816
8.70443
347.768
308.621
354.039
4.4909
8.03358
9.71785
323.274
164.932
7.25524
5.258
0.142233
4.4382
1.91567
178.555
5.61488
3.11511
0.615095
-39.7432
-31.1944
-16.8561
339.634
-77.0167
-19.6334
10.9418
4.55208
13.293
7.00023
-1.42129
10.5053
12.2465
14.0998
12.0081
7.08124
6.56675
10.344
6.97931
19.2213
39.2823
31.4572
-15.5736
-7.28359
39.7343
16.9739
20.3522
26.3217
26.0854
0.745073
12.8066
20.7757
15.4249
41.0112
51.7789
49.1637
51.3073
19.7865
57.5787
30.434
43.3722
32.406
23.2571
15.6745
18.4689
50.2527
61.6211
52.8054
54.3493
30.8643
59.2388
43.5282
32.6018
47.8212
34.8652
33.4271
21.0172
41.1865
29.9502
60.615
49.8757
56.1655
41.2504
59.5051
50.2847
59.5057
46.8494
58.6295
45.5838
33.9489
42.366
32.3463
43.0331
31.0979
15.8439
27.5033
16.1187
27.119
14.9953
4.60189
8.57655
3.8653
10.8723
1.66578
59.0756
58.8724
45.9702
43.7857
31.1148
27.5239
14.4158
10.9356
1.26724
50.3928
59.4575
57.6845
51.3802
54.0116
61.3157
53.4115
59.111
51.0035
58.4631
55.8692
42.9918
37.127
48.6513
34.6496
45.9993
36.4937
29.8366
20.9538
32.3985
15.9104
28.3109
20.5652
10.0857
3.83575
13.7842
1.31611
10.0448
4.11705
48.8064
59.0887
47.0619
56.8972
57.9603
54.1325
56.2385
36.5165
43.2632
32.9203
49.4564
40.0324
48.5907
41.5864
43.297
51.7788
52.1765
44.0949
41.2841
32.641
45.2456
40.1712
34.5729
34.2556
34.9624
16.2569
45.0311
35.5021
4.7945
10.2155
18.5283
19.888
31.1515
30.7491
14.3071
20.2173
27.4042
171.85
-183.722
77.4601
-33.8413
247.954
348.028
14.091
-133.553
6.68053
-48.5092
-3.31679
350.012
349.43
19.5251
9.7085
18.5069
5.91933
19.4587
347.969
9.95844
17.0008
9.91146
17.0126
10.6512
8.41458
2.50217
6.17499
2.4559
6.09235
2.68301
4.49279
1.30658
8.49686
351.291
348.468
353.063
349.923
348.098
348.356
16.8854
346.549
296.027
347.793
315.229
345.412
309.621
7.63147
292.642
162.899
327.706
7.93628
310.962
101.145
1.33432
162.816
8.40022
4.22185
0.858791
143.48
0.0227367
436.828
347.547
317.519
346.365
255.57
347.53
264.634
146.875
309.985
163.68
303.787
148.369
329.262
71.3729
0.743348
193.341
168.698
0.630556
162.381
-61.2859
279.171
350.335
304.788
348.157
342.588
337.806
384.301
114.706
325.004
160.899
326.281
105.883
303.608
84.1394
-0.539943
239.669
-44.3931
151.124
262.117
477.705
343.986
477.596
330.127
326.589
328.106
303.677
107.656
323.685
141.569
260.591
95.6117
278.014
227.398
-51.6049
149.256
-50.7706
162.841
208.289
393.119
337.457
333.966
337.533
330.824
340.406
335.469
338.216
342.791
340.775
345.378
342.937
333.395
342.535
324.799
354.267
346.195
374.583
327.108
304.522
327.722
276.536
108.328
337.896
-23.7886
282.462
227.957
231.67
197.381
110.132
210.791
352.819
204.267
433.993
344.556
351.033
117.364
336.249
289.384
348.059
336.18
127.712
291.867
165.467
218.372
147.071
337.846
163.304
386.229
-8.52788
176.796
403.505
188.015
279.253
346.921
307.617
347.939
456.079
347.318
286.103
168.582
318.375
193.776
337.404
152.383
306.644
94.0397
-20.7804
158.23
5.49897
231.562
126.573
2.26118
350.457
353.165
355.246
344.754
349.148
353.647
353.702
335.794
353.918
347.068
332.333
351.113
258.919
172.68
5.38054
313.064
134.071
238.288
171.287
4.83903
2.6378
0.330044
151.802
-4.26197
170.571
0.635555
324.241
131.787
-50.8703
254.94
340.972
128.971
-196.762
355.485
-109.553
-22.0336
356.398
356.271
-203.252
-21.8607
8.26098
-6.56401
9.34604
353.13
236.687
-6.93158
10.8297
5.31248
7.71232
5.63933
288.891
178.277
11.8475
5.18191
1.03798
2.65745
1.84167
0.120858
2.24683
1.99282
-10.3992
60.357
-116.339
-21.0052
43.9524
15.1964
8.3694
15.4819
-6.2757
11.9827
18.0003
19.1722
53.2934
31.1056
45.4923
25.9362
46.5363
41.7009
31.9239
19.5243
25.7057
23.1458
33.4523
28.6176
37.0765
56.9991
46.9053
49.7869
50.2236
52.8068
54.6769
26.2554
42.1304
31.9409
42.8334
35.9638
46.8343
39.4134
54.286
41.7468
58.873
49.3135
51.0056
45.0406
56.971
51.6226
59.1073
46.3959
55.5597
53.8775
58.2419
47.4239
35.5381
43.685
32.2808
44.6034
36.9768
43.5926
35.0286
16.6971
27.6625
15.2325
28.9462
17.239
31.0411
15.1701
3.0396
11.4776
0.95366
8.67695
3.80783
10.6168
1.58974
60.1185
41.4443
59.3675
46.4643
58.769
45.2665
31.0349
43.335
34.7515
14.5043
31.4827
14.469
1.10418
11.2781
1.01418
46.7023
45.9006
36.7814
33.5615
17.3324
13.8476
2.21258
57.9402
51.8477
53.1513
42.222
56.126
52.3411
52.7186
50.9135
56.4167
57.2843
56.7108
47.2804
54.9104
55.9611
34.6982
46.6329
39.0139
47.1236
38.2699
47.545
40.6222
16.1141
28.3117
20.27
31.4356
19.3225
27.0632
19.2797
1.39955
10.8251
5.32624
12.9524
3.11359
11.1506
5.62032
-7.66164
352.257
349.503
-113.295
-9.84474
355.392
350.756
21.2015
348.115
3.51867
23.8272
348.762
336.263
12.1364
7.07479
20.9299
12.4132
337.03
7.59636
2.6789
4.33753
0.522742
6.76379
3.20241
6.63344
0.695322
349.29
347.459
347.976
355.964
350.424
348.065
348.019
316.415
345.437
341.168
347.464
330.591
346.471
313.296
5.93014
310.718
138.403
336.338
205.657
301.778
181.77
0.281788
112.371
1.34259
209.455
-5.09481
297.7
347.856
395.449
348.354
283.804
352.892
266.81
104.743
320.524
158.385
332.185
165.217
329.903
146.824
10.2253
-9.11052
220.907
-5.21457
161.212
-28.4551
274.775
331.228
334.951
353.526
272.453
324.246
312.046
159.055
261.51
134.199
339.378
126.881
304.317
213.804
-40.2907
144.702
139.699
-24.678
204.686
376.685
338.44
327.954
342.514
331.348
340.839
329.133
341.681
327.342
343.465
336.329
346.398
338.724
343.915
344.891
310.258
334.646
309.633
334.49
310.272
340.324
325.573
164.87
280.725
244.569
278.064
242.188
292.875
274.626
451.719
202.147
379.434
224.024
405.836
223.784
418.732
342.395
333.698
340.69
329.88
341.593
327.934
344.287
336.137
344.261
320.692
343.362
343.36
344.681
340.603
311.735
326.116
297.869
341.176
322.784
337.489
324.8
243.689
275.589
202.705
296.144
275.043
286.503
268.773
387.73
211.436
443.188
231.407
415.079
218.491
401.965
338.443
334.49
338.029
330.657
342.644
335.821
338.179
321.6
341.714
345.879
346.207
341.761
342.32
341.563
273.744
346.832
357.303
342.101
315.369
342.29
313.303
195.395
340.468
174.778
289.865
249.11
365.629
153.923
473.985
171.934
224.904
429.929
161.691
-3.19643
352.051
347.333
309.374
347.288
296.087
350.114
327.182
171.88
292.595
177.701
346.795
151.522
329.071
160.485
-42.8701
72.5511
-28.3485
153.078
-0.655385
152.736
0.388895
321.076
352.019
213.367
350.292
320.072
352.372
317.675
159.481
293.806
170.177
330.574
165.076
278.783
168.741
170.641
151.954
-1.68831
172.806
7.46581
356.89
-186.882
-30.7598
354.633
357.673
-157.715
-32.0023
266.927
-10.2963
10.6613
354.724
316.229
-16.9031
12.5983
174.71
11.2763
6.26127
275.982
172.233
12.5221
8.86098
0.625931
2.96037
1.80125
175.301
4.82125
1.322
-32.7606
25.6728
3.89445
-155.874
-31.4399
15.1277
-2.30735
11.4014
15.6377
20.0999
-3.1359
15.9524
16.4528
24.6827
48.613
44.7507
55.9856
48.1135
46.544
43.5448
54.4732
53.5396
57.8041
48.3545
48.2324
50.5202
55.1441
51.4531
39.2987
43.3822
36.1335
45.2882
42.284
46.5248
39.9782
20.7726
30.7017
16.5851
31.3239
23.3614