/*--------------------------------*- C++ -*----------------------------------*\
| =========                 |                                                 |
| \\      /  F ield         | OpenFOAM: The Open Source CFD Toolbox           |
|  \\    /   O peration     | Version:  4.0                                   |
|   \\  /    A nd           | Web:      www.OpenFOAM.org                      |
|    \\/     M anipulation  |                                                 |
\*---------------------------------------------------------------------------*/
FoamFile
{
    version     2.0;
    format      ascii;
    class       volScalarField;
    location    "31";
    object      p;
}
// * * * * * * * * * * * * * * * * * * * * * * * * * * * * * * * * * * * * * //

dimensions      [0 2 -2 0 0 0 0];

internalField   nonuniform List<scalar> 
146404
(
-3.90596
-1.34103
-4.83067
-2.14799
-8.15417
-4.37725
-1.45219
2.77425
0.897713
-9.70908
-0.683172
-1.95313
-0.416887
-8.40709
-4.57728
-1.82666
-4.68575
-3.98015
-2.68996
-3.53552
-2.66277
-7.1579
-4.99216
-2.21077
-0.18732
-2.79124
-6.97527
-6.19749
-2.89818
3.48343
-4.01482
-12.4342
-7.72372
-2.39388
4.31516
-2.04973
-10.2952
-6.42684
-1.88849
9.1323
7.79503
-14.1863
-2.37622
7.08823
-1.49956
-11.216
-7.0372
-2.90321
5.93676
-0.101286
-6.547
-6.13586
-2.88865
4.77339
0.65279
-5.52336
-5.18899
-2.24796
2.78911
0.875436
-5.17016
-3.80906
-1.63752
4.35069
-3.36322
-0.67838
3.66449
-2.67832
-11.9848
-7.0927
-2.89704
6.96271
-3.61782
-15.7378
-8.95714
-2.92392
9.12884
-5.07926
-20.4177
-12.999
-3.91772
11.4493
-2.44205
-16.8408
-10.6037
-3.71233
17.4975
4.69258
-22.2587
-4.22156
14.508
-4.96174
-20.3214
-11.5995
-4.53943
18.7382
-1.94035
-18.1299
-9.83778
-4.16891
12.9665
1.73299
-11.3555
-8.7455
-3.01423
10.0968
0.6375
-9.8853
-6.25284
-1.76353
9.88107
2.51311
-10.371
-0.117781
3.80049
-6.37419
-3.49133
-0.523703
0.323691
-2.89456
-8.3698
-4.79212
-1.56016
6.411
-0.916257
-14.703
-6.14265
-1.42104
12.7642
2.49801
-21.7917
-5.92885
-3.26926
17.445
-6.58107
-22.6502
-13.5474
-3.58103
26.1508
-21.5626
-30.5338
-20.4235
-5.91159
38.919
-30.2995
-34.3266
-20.707
-8.09642
47.0662
13.874
-35.0624
-9.16467
38.7412
-26.6143
-45.0873
-24.4388
-7.32223
25.6742
-19.4808
-44.8475
-23.9393
-4.91327
26.4357
-0.309891
-24.6382
-15.2806
-4.84414
20.3067
8.08292
-21.7412
-10.4233
-1.74633
12.2067
3.25186
-10.9304
-6.7688
-2.04823
6.58404
2.94816
-4.27922
-4.1625
-1.68974
3.4827
-1.75653
-2.32501
-1.78472
-1.43126
-3.03321
-6.50523
-5.20834
-2.30851
4.86082
-4.11168
-13.4616
-7.22368
-2.24816
10.1727
-3.92403
-17.8473
-11.2927
-3.25434
29.9619
-1.18095
-36.136
-12.9911
-4.92637
58.9821
-21.5494
-60.2982
-28.5625
-5.9366
106.674
-131.453
-96.4625
-38.1667
-9.27603
113.007
-166.51
-111.494
-36.0952
-13.959
137.972
-155.393
-32.1028
-19.372
115.055
-174.563
-126.377
-40.2048
-14.9017
91.7471
-127.898
-100.292
-43.0171
-14.2493
58.696
-8.8305
-71.3378
-39.2438
-8.85857
35.3549
9.44574
-40.8906
-21.6579
-6.58473
17.4832
2.38315
-15.3828
-9.44552
-3.08045
11.6426
1.75689
-7.10284
-5.1944
-2.06917
5.69444
3.83172
-2.88634
-3.63286
-2.06761
-3.98143
-2.917
-7.16429
-4.03186
-1.83515
3.77481
-4.72055
-9.8929
-6.48956
-2.32335
8.84055
-6.14141
-21.0852
-10.6605
-3.20722
20.1629
-15.382
-40.5826
-15.095
-3.37591
62.7296
-140.139
-66.2619
-25.3001
-5.88303
141.37
-151.7
-111.843
-35.0416
-8.68721
313.931
437.344
-36.6918
-10.1097
383.413
435.439
436.75
412.01
386.037
432.036
436.051
432.546
306.205
373.391
431.964
435.694
423.267
306.641
429.337
-44.9486
-14.6378
174.771
-45.5873
-14.4816
61.7877
-54.5884
-99.7135
-30.3287
-6.22178
24.1813
0.738492
-30.1007
-16.7164
-4.93797
16.3862
5.57343
-14.7388
-10.691
-3.10221
10.6815
2.92878
-5.5052
-5.57985
-2.28272
4.45194
3.53202
-3.60687
-3.00012
-1.15228
3.59162
-0.695939
-12.506
-2.78419
-0.508578
6.66942
-3.24395
-14.9044
-8.02745
-1.30609
15.0677
-7.09357
-23.838
-12.6974
-3.77053
45.0218
-63.0261
-58.1414
-21.785
-5.96153
144.007
-122.834
-100.158
-33.9738
-9.56084
377.469
439.24
439.175
-9.47805
414.403
432
435.167
406.003
295.449
415.695
428.288
432.717
440.323
322.93
414.242
426.727
433.046
423.514
276.194
410.027
426.24
431.23
414.227
324.149
391.022
426.595
432.124
399.791
286.596
346.108
432.301
434.219
425.802
-15.1443
171.529
-78.3637
-127.763
-45.4738
-16.4557
41.3803
-28.8527
-54.5498
-28.8891
-8.05762
24.3941
5.78935
-22.0234
-15.5436
-2.27866
14.9196
6.425
-12.4898
-8.40705
-1.01735
10.2503
5.16254
-10.0258
-2.78195
-0.838198
3.18246
-2.51528
-11.8584
-5.01854
-2.00686
10.2836
2.13228
-18.156
-7.34922
-3.05985
29.7008
-19.6952
-5.62946
81.5892
-85.3078
-76.7822
-31.5104
-10.5737
306.665
-93.2121
-27.9668
-10.7982
415.271
432.613
437.443
391.619
273.453
419.32
429.344
436.499
374.693
260.436
417.656
426.293
435.185
434.5
293.975
416.074
423.857
431.099
434.799
211.171
414.653
423.965
432.755
457.22
330.291
409.28
424.345
431.924
349.743
310.066
386.238
426.67
428.263
430.459
301.919
301.061
427.605
433.304
-43.5253
-17.0684
80.5026
-68.5054
-108.899
-44.6664
-11.3596
34.5644
69.5829
-43.2849
-4.87113
17.3147
9.7138
-18.827
-9.81251
-2.16321
9.77269
3.41241
-7.91483
-4.61249
-2.00974
4.44683
-4.20434
-2.78002
-1.50075
-1.8369
-4.79356
-3.5474
-2.4569
4.03749
-3.74756
-11.7581
-5.99562
-1.89101
10.3851
-5.04113
-22.1001
-12.3578
-3.13278
32.4724
-22.7364
-33.6588
-21.027
-6.20015
93.7086
-162.501
-112.042
-30.4291
-10.2892
381.262
437.759
439.056
439.114
-9.34298
418.665
431.486
436.085
390.166
261.36
419.39
428.153
435.072
462.523
221.539
418.43
425.077
424.892
298.462
246.231
413.44
421.481
413.889
344.296
243.552
414.404
420.973
419.229
295.651
239.143
412.824
423.1
430.888
444.359
174.967
399.043
423.304
428.245
411.23
245.616
345.734
431.114
434.235
384.512
303.915
119.368
-118.685
-116.548
-48.5457
-16.9113
25.7537
-3.65483
-34.1426
-13.5059
-4.06629
16.6711
2.62579
-12.1605
-9.14841
-2.99416
10.6194
4.3694
-6.22207
-5.71861
-2.6907
3.37418
3.91442
-1.25176
-3.01732
-2.4857
-8.24235
-2.26117
-4.35825
-4.49467
-2.47357
4.04488
-3.75285
-11.701
-5.91966
-1.92645
10.343
-5.17827
-22.2368
-12.5447
-3.40724
31.6123
-28.466
-36.1505
-22.8371
-6.88951
117.333
-93.6039
-113.787
-36.0179
-8.51903
387.591
438.13
438.9
422.038
419.245
432.18
436.594
441.937
324.537
420.461
429.013
443.428
453.901
220.326
417.357
425.939
418.385
333.176
260.498
412.413
420.748
406.564
349.271
256.51
411.606
421.126
415.459
341.259
251.778
414.41
424.131
429.824
463.407
219.562
402.839
424.474
429.83
443.246
248.684
353.356
430.822
433.657
412.929
318.801
136.987
-83.2918
-118.613
-45.8734
-14.8607
23.658
-2.71354
-28.0161
-13.6684
-3.66584
17.6548
2.39265
-14.2016
-8.81337
-2.83303
11.0905
4.13391
-6.36863
-5.77617
-2.54095
3.51657
3.81121
-1.68699
-3.7921
-1.93404
-1.92989
-4.56159
-3.19601
-2.49325
2.37468
-1.71366
-9.03037
-5.9331
-1.96569
9.95656
-1.32659
-16.9072
-10.9603
-3.45203
35.3685
-12.1437
-33.2407
-19.9104
-6.99649
117.205
-171.034
-99.7199
-38.4576
-11.2024
374.784
438.717
439.266
415.095
-10.2811
417.032
432.791
436.272
425.161
268.662
421.337
430.605
440.093
443.11
223.427
420.717
427.691
430.745
322.101
242.823
418.286
425.096
420.317
338.142
259.3
418.309
424.948
427.625
331.947
253.783
413.855
426.905
434.914
442.923
143.232
400.002
428.284
431.427
349.007
262.839
337.306
435.908
434.479
427.542
319.145
101.677
-109.027
-136.165
-47.4929
-11.3719
33.4435
0.32603
-34.3592
-20.2482
-4.78207
17.2252
5.91128
-13.3797
-10.2751
-2.218
9.17534
3.65254
-6.00068
-5.35984
-2.55721
3.12656
3.7135
-1.71448
-2.82074
-2.35253
4.52477
-0.867828
-11.3238
-4.19101
-1.32597
11.3727
1.40663
-18.5571
-2.69513
-1.84965
27.4899
-12.1453
-3.77695
71.0747
-66.8343
-83.6853
-34.0425
-9.58237
289.677
-107.095
-42.3606
-13.3313
398.659
435.234
437.253
441.543
289.076
417.578
431.947
437.13
431.622
223.904
419.93
430.351
435.665
446.091
334.229
419.497
431.476
449.999
448.707
238.951
416.211
429.086
435.307
433.936
257.716
409.535
428.757
432.909
370.368
253.833
385.889
433.453
432.868
368.802
293.651
292.41
431.537
436.545
-41.5589
-13.6104
62.5827
-82.0021
-82.3261
-38.3675
-6.35356
25.9346
16.0827
-37.9887
-1.58201
14.8094
10.7482
-21.1898
-12.2828
-1.29382
8.87393
6.69086
-9.8474
-6.63339
-1.06002
3.19717
-5.01442
-3.27442
-1.75521
1.16559
-3.76642
-13.8626
-4.6103
-1.56334
4.84304
-4.44818
-12.4728
-7.84906
-2.38888
11.5042
-5.73422
-22.7983
-12.5912
-3.97424
34.5825
-35.3944
-44.3185
-18.7947
-4.63504
135.022
-97.416
-112.998
-41.6287
-13.13
334.229
441.813
441.831
-13.661
394.34
436.29
437.047
433.172
261.449
407.199
432.24
436.179
448.436
247.702
409.172
432.059
441.055
358.754
163.837
404.306
431.287
435.035
444.951
258.632
386.198
434.58
433.252
405.079
285.399
339.244
437.071
436.853
344.26
-11.005
95.6161
-165.456
-93.7459
-36.2578
-4.571
14.966
-6.93334
-26.6156
-14.2504
-4.57258
9.23037
-3.44181
-19.3393
-12.4172
-2.67152
7.84194
-2.18626
-11.5711
-6.9406
-2.00055
5.51941
1.04597
-12.3443
-3.23091
-0.598929
-6.71575
-3.87305
-7.48989
-4.04733
-2.20956
0.448928
-3.93665
-8.09354
-6.23123
-2.59143
5.74843
-3.71343
-14.5929
-8.69795
-2.77645
17.385
-7.1462
-22.2626
-14.2959
-4.76019
47.4772
-42.5188
-52.1162
-27.6338
-4.7422
113.221
-140.832
-87.1675
-44.1505
-13.028
283.024
438.981
-103.184
-39.5036
-12.4684
354.197
438.358
440.131
396.77
362.615
438.516
440.665
406.466
322.26
353.332
438.07
438.669
425.735
284.754
436.103
-28.9477
-10.9139
94.1875
-32.5053
-7.21756
35.3875
-26.6687
-43.8819
-22.4288
-4.8589
9.20708
-3.60917
-16.0014
-9.30882
-2.95481
4.37451
-3.08483
-9.61275
-5.65368
-1.97722
2.71161
-1.37805
-6.72347
-5.1222
-2.14438
-0.668308
-1.09756
-5.73353
-3.87878
-1.44385
-3.30533
-3.11539
-6.44141
-5.10788
-2.31475
1.74754
-2.62698
-9.82189
-5.69058
-1.99154
8.15145
-2.69554
-15.4308
-9.02952
-2.12845
22.9559
1.48146
-32.8998
-16.4304
-2.93741
36.9538
-18.8965
-41.0901
-20.0286
-4.37857
53.5899
-102.956
-71.0202
-25.9304
-6.52283
69.8266
-160.901
-70.0548
-26.7304
-8.16719
77.7469
-201.546
-26.9199
-9.19521
71.2326
-164.689
-74.0878
-24.904
-6.28017
48.2548
-78.9338
-63.9933
-23.256
-5.50797
31.6097
-16.6329
-48.7283
-25.584
-3.81621
18.2771
-0.807775
-34.9888
-15.3406
-1.3902
7.71126
-1.35968
-13.654
-9.16873
-2.03296
2.85092
-1.90058
-8.08796
-5.81139
-2.44127
-0.402319
-1.16383
-5.38298
-4.67385
-2.30637
-0.855109
-3.02195
-8.63165
-4.97151
-1.79699
5.44386
-1.26887
-14.5619
-6.56672
-1.59302
8.58278
-0.783584
-19.4656
-4.93599
-2.56838
8.17913
-3.63536
-16.3115
-8.9477
-3.13242
10.3343
-6.35097
-21.5818
-12.1674
-3.45172
23.9271
-10.3914
-28.8158
-18.4681
-3.44911
29.7416
-19.3766
-23.3125
-3.75524
12.2752
-13.6186
-29.972
-10.7565
-3.49583
8.52766
-4.68417
-17.9069
-10.2011
-3.41869
10.1946
-3.71624
-18.015
-12.2921
-2.84344
8.21872
1.03604
-20.838
-10.8698
-1.34199
4.88342
0.655879
-14.25
-5.43677
-1.04429
0.343636
-1.39305
-7.33979
-5.12466
-1.87464
-1.48865
-4.57404
-3.47865
-2.24598
1.85325
0.852298
-0.669979
1.472
-2.72384
-9.37739
-5.76856
-1.74185
3.79366
-2.53823
-9.75077
-6.94341
-2.79723
4.32197
-3.86079
-11.9894
-6.29281
-1.94065
7.95095
-2.4051
-13.9766
-9.18756
-1.49377
12.0222
-3.94915
-12.385
-1.86325
5.2072
-4.68149
-13.9575
-5.7386
-2.12053
5.66297
-3.33947
-9.99848
-5.72232
-2.01666
2.30274
-3.48979
-10.1415
-6.86624
-2.56937
1.24133
-3.14854
-10.5778
-6.0239
-1.94077
2.77946
4.90692
-17.3687
-8.82389
-0.678496
-9.19129
-3.27695
-1.26109
-5.49656
-2.85629
-6.19797
-3.56615
-1.38855
-2.01762
-2.50559
-5.81122
-4.65238
-2.23477
0.12386
-1.86908
-7.1823
-4.94802
-2.28889
2.23519
-1.83325
-9.02863
-5.73228
-2.01466
6.05795
-4.27057
-6.12502
-1.06101
2.03454
-3.82679
-9.94404
-5.79868
-2.08691
-0.88609
-3.37308
-7.50267
-5.22326
-2.13523
-2.29732
-3.22886
-7.13544
-5.28679
-2.49441
-4.27266
-3.05236
-7.1435
-4.50024
-1.81917
-6.18456
-1.68388
-6.613
-4.24576
-2.03098
-2.82548
-5.26035
-1.67002
-0.227123
-5.69183
-2.8309
-8.94761
-4.3108
-1.66636
-3.92254
-2.07855
-6.05973
-6.76841
-5.57204
-4.56546
-2.24421
-1.84435
-0.0531092
-2.12782
4.92309
-6.53339
-6.06318
-14.196
-7.18354
-5.65672
-14.6308
-6.25882
-4.49498
-2.04459
-5.48353
-0.84445
-1.67996
-0.0473005
-0.741665
0.10701
-1.82808
15.125
1.88028
0.416854
0.350767
-7.86804
-8.44395
-5.84897
-12.5315
-0.731766
-4.28442
-1.89176
-0.693437
0.200843
-1.64039
-0.132819
0.915366
-0.176672
-7.14546
-7.91719
-5.74929
-4.31291
-2.11416
-1.88433
-0.142517
-2.06738
-2.64761
-6.2182
-6.56991
-5.58726
-4.64354
-2.43085
-2.10828
0.0184098
-7.40546
-2.1572
-3.2098
-1.87829
-2.76641
-6.14602
-2.68318
-5.06112
-6.52878
-5.43568
-6.11511
-6.0109
-4.53234
-2.53797
-5.20578
-3.33737
-2.23669
-0.0372241
-2.56197
-0.326328
-2.55332
-1.73388
-0.678568
-1.24467
-2.55348
-5.19525
-2.28971
-5.47087
-6.18527
-6.0991
-6.84878
-6.77344
-5.30483
-3.5374
-5.92239
-3.87837
-2.67029
-0.411054
-2.91129
-0.396822
-5.35672
-1.7814
-0.436437
-0.731255
0.780888
0.064626
-2.21187
-5.95087
-2.11654
-4.64632
-2.06313
-5.76181
-5.50647
-7.13769
-6.05398
-7.4051
-7.26715
-8.78372
-8.2647
-3.3586
-4.06237
-2.09145
-5.54706
-4.05893
-6.05977
-4.21286
-1.52067
-0.268924
-2.56435
-0.989731
-2.37924
-0.870596
-1.5625
1.91351
5.33143
2.24456
1.33766
5.11385
6.52845
-7.13938
-2.43613
-14.5966
-2.23294
-6.83818
-5.08689
-17.6764
-6.32729
-14.8263
-8.16527
-8.99312
-7.84377
-18.3556
-10.4378
-2.0945
-2.53904
-1.16253
-5.06297
-3.7173
-3.32252
-0.748165
-0.261509
-0.857665
-0.204795
-2.0833
-0.721075
-0.0790652
-0.302104
10.4583
-1.54906
2.3434
7.13948
16.0616
5.19129
4.35047
0.0891688
-7.48201
6.64681
1.00534
-7.97275
-8.71793
-6.38993
-11.0109
-9.29536
-8.81678
-0.847756
-3.92187
-1.96012
-13.3457
-2.49776
-6.29612
-3.3655
-0.0553058
-1.53723
-0.497399
-1.12548
-0.480378
-2.47903
-0.983703
0.907567
0.86687
4.12413
2.9249
3.46074
2.46461
-7.11736
0.23224
-4.50636
-0.615092
-6.16891
-0.639498
-4.39934
-6.90729
-5.1165
-4.59361
-9.50118
-9.09019
-6.90299
-6.71037
-2.3744
-4.04322
-2.68599
-5.80615
-3.71368
-5.42072
-3.79984
-0.408263
-2.4586
-0.089041
-2.38534
-0.867195
-2.26556
-0.92047
3.7403
2.61168
2.99535
2.64907
-3.99377
0.117715
-2.89575
0.995529
-3.20143
-4.38278
-5.57345
-6.29949
-4.73579
-5.3832
-2.69887
-5.25539
-3.85513
-4.84001
-3.2328
-0.0732652
-2.27937
-0.902466
-2.40198
-0.444869
2.66081
2.4505
1.04316
1.75951
0.933475
-3.05859
0.938895
-3.07457
-4.45574
-5.00228
-4.32784
-4.07377
-4.45563
-3.03138
-3.07261
-2.44554
-2.35642
-0.355918
-1.82097
-0.366048
0.343883
1.64454
0.852966
-3.82218
-4.4065
-4.1668
-3.54509
-2.32345
-1.94568
-0.223115
0.376459
20.0409
-1.34559
-0.413356
-0.364475
0.00950554
-5.5762
-1.90068
1.66374
5.19292
0.916592
0.853479
-2.50007
-6.73189
-6.29448
-3.03845
-8.81437
-7.49345
-6.2003
-10.607
-10.8607
-9.30427
-4.41038
-2.41813
0.455432
-1.33378
-4.84608
-2.57299
-1.94946
-0.290372
-0.813872
-0.165175
-1.41181
-0.481021
-1.54636
-1.1903
-1.12787
0.753446
0.527929
1.44687
0.214487
-6.17526
-2.87807
-5.17705
-2.98064
-7.42011
-2.93703
-6.60732
-6.36115
-7.06095
-7.14229
-9.86613
-9.20611
-9.20878
-8.78656
-2.72991
-5.6025
-4.06921
-6.2745
-4.00324
-6.70976
-4.76337
-0.372318
-2.26801
-0.861878
-2.22681
-0.904961
-2.72179
-1.01948
-7.52253
-4.89373
-18.1748
-2.2285
-9.93832
1.73804
-24.1583
-9.02811
-18.7933
-11.0136
-13.0287
-11.1755
-24.5125
-16.9956
1.1439
-8.76085
4.43848
1.47343
-12.6652
-12.0006
-10.0472
-9.92104
-18.434
-14.6091
-13.1143
4.00178
3.12657
2.81767
8.37508
5.60384
7.00831
5.65872
2.8331
6.68411
5.76078
8.01723
9.04288
-3.79287
0.766129
-5.46997
4.06846
-11.9277
-4.9683
-8.4339
-7.80376
-12.4592
-7.49854
-2.21398
-5.01725
-2.95284
-3.30883
-2.28792
-0.287916
-1.59205
-0.585557
-1.222
-0.311779
7.96088
11.9566
6.39007
-13.6777
3.83769
-6.80212
-14.0463
-8.77739
-7.99509
-5.30251
-6.57304
-0.38391
-3.51862
-0.486004
-0.337328
-0.155552
-0.352547
0.0798794
-2.6624
-1.63463
-2.93617
-6.36622
-7.31587
-5.91575
-4.35696
-2.22749
-1.57093
-0.173779
2.02634
7.27869
-1.10543
-0.932934
2.52818
1.97053
28.5515
-3.23646
-6.75034
-1.50458
-11.3266
-27.9576
-8.43019
-7.24226
-12.2807
-8.05655
1.63133
-0.924956
-3.95149
-2.14255
-3.76654
-2.13683
-0.567135
-0.203064
-1.17629
-0.385419
-1.31915
-0.625955
-1.54344
-11.604
-0.48959
-14.1088
1.21499
-22.1162
-12.5266
-9.93246
-14.8791
-8.20107
-21.2948
-14.2876
-13.5617
1.58023
-25.8624
-8.00133
-22.3358
-3.78514
-44.6031
-14.675
-25.9523
-18.9684
-24.1828
-20.6723
-38.4394
-31.5412
0.998404
-15.8284
10.6555
-2.89664
-30.259
-20.1013
-17.5545
-15.8839
-32.8522
-31.3114
-24.4759
-8.13187
5.17967
-13.1001
6.74173
-15.6637
9.31198
-13.7567
-9.35315
-13.5285
-8.34457
-18.3341
-15.0826
-14.6688
-10.633
14.1089
2.12256
5.65594
10.8392
11.0381
7.82689
7.34696
3.59801
-6.20082
6.69686
-9.47315
3.03599
-3.32002
-9.10699
-8.23422
-5.87184
-12.5841
-9.85364
-7.33081
-7.27824
-0.615528
-2.95687
-0.719629
-5.89051
-1.90585
-4.48458
-2.31629
-0.0568652
-0.504804
-0.126482
-1.16656
-0.50524
-1.07417
-0.464641
5.29498
6.06038
5.47786
4.04805
-5.5838
3.45462
-2.81877
3.41547
-1.23466
-5.23477
-4.7256
-5.36366
-2.06946
-3.0705
-0.63228
-4.52985
-1.97109
-2.51488
-1.88291
-0.0398568
-1.28275
-0.199983
-1.62185
-0.279084
-5.16984
-2.56297
-2.90526
-5.04636
-5.75941
-5.11985
-4.22387
-2.58177
-2.00781
-0.321103
-1.87337
-1.439
-3.44722
-2.21434
-0.550262
-1.1351
-3.16049
-5.15427
-2.83768
-5.39771
-3.1321
-5.61632
-6.84657
-6.3746
-6.059
-5.47354
-7.32894
-6.92645
-4.54978
-3.18155
-4.66253
-2.85425
-5.18896
-3.68147
-1.86504
-0.705486
-2.04139
-0.26551
-2.04781
-0.73059
-14.0029
-1.62757
-25.7168
-2.62237
-11.9471
1.33887
-24.7279
-10.66
-22.6986
-18.0779
-15.1416
-13.2793
-25.1547
-18.1897
-22.9697
-4.92142
-19.6738
4.31425
-32.1649
-5.3384
-39.4774
-14.2653
-20.6435
-18.3476
-30.9215
-18.6069
-42.6928
-30.4385
-40.8917
-5.01213
-51.0238
-122.509
-123.029
-121.481
-100.68
-28.364
-43.4474
-34.1774
-64.6468
-39.3384
-82.2707
-36.2034
-12.181
-42.3133
-89.1214
-127.704
-122.317
-35.1855
-41.3296
-31.0832
-36.1551
-90.4861
-43.604
-17.8764
6.2678
-18.932
0.798067
-47.8767
48.4089
-22.9464
-21.6635
-19.5281
-52.0901
-39.6739
-38.4861
-20.1794
7.74067
-13.0274
18.6574
-39.9003
7.37409
-12.7795
-17.0208
-15.6151
-12.7072
-37.2989
-30.1023
-16.2681
-15.5426
6.32079
-0.426982
4.51072
8.56752
6.78255
5.96408
5.5553
-0.819005
3.33061
-0.667087
3.39449
-1.05763
3.59121
0.634355
-5.06776
-2.42501
-3.26206
-5.35593
-5.93981
-3.28289
-4.30647
-2.78322
-2.67864
-1.9729
-5.14856
-3.70669
-4.03647
-3.17003
-0.738592
-1.64796
-0.362175
-2.30021
-1.05398
-2.13326
-1.09682
4.00235
4.57016
4.72241
-0.849348
3.69007
-0.322028
-2.82021
-2.39486
-3.59333
-1.95312
-3.41597
-2.3877
-0.172925
-1.99919
-0.431664
-3.35236
-6.12877
-6.43442
-4.39846
-3.82177
-2.52628
-2.40776
0.406116
-3.95353
-2.35717
-7.48709
-2.48838
-0.706182
-1.76376
-2.81923
-5.1494
-3.07277
-5.99892
-3.16074
-5.24835
-5.88156
-5.33033
-6.27696
-4.45464
-6.71108
-6.4131
-4.48891
-2.81028
-3.97393
-2.57398
-4.78353
-3.36956
-2.11247
-0.310358
-2.41553
0.0954102
-2.11732
-0.786602
-37.0572
-10.4854
-53.0452
-40.8246
-60.5262
-119.778
-120.391
-23.2134
-52.6215
-43.5479
-52.3725
-32.9619
-98.9108
-44.4759
-65.2552
-144.982
-126.524
-3.3175
-137.133
-144.819
-41.2371
-83.8198
-51.7496
-45.3109
-111.352
-47.6203
-144.388
-134.717
-144.562
-130.355
435.421
437.852
-63.1213
-118.015
-47.5517
-115.922
-47.9906
437.098
-20.5728
-34.7537
-19.7728
-35.4108
-15.5135
-15.9465
-2.76443
-10.3847
-3.26696
-10.9217
-2.83012
-12.4032
-1.07582
-138.059
136.786
-223.662
337.237
430.862
346.904
426.437
-144.342
-212.328
-105.642
436.826
437.698
433.974
437.282
-44.5826
-85.6881
-35.1221
437.103
389.928
437.031
367.941
-22.6021
-30.0801
-23.0924
419.489
-16.5458
446.024
-4.31365
-19.5797
-5.89812
-13.7486
-1.43725
-2.7876
-158.267
119.904
-188.563
347.205
426.048
339.619
425.004
-198.763
-144.751
433.443
436.395
433.649
436.239
-34.986
-106.345
-45.8579
436.094
405.598
435.921
360.923
-22.5587
-36.9106
-24.6807
430.531
407.939
-19.5726
-6.5795
-17.2302
-6.83075
-1.94304
-17.0868
-4.06772
-160.375
-115.064
-142.482
434.124
436.394
430.822
-51.7679
-124.079
-67.0544
435.981
386.996
-53.6521
-23.861
-40.3088
-24.8367
418.764
-20.262
-45.6562
-20.6217
-5.37757
-12.4189
-3.65843
-17.9587
-3.32505
-15.9848
-2.31347
-131.935
-97.6103
-130.223
-130.464
-85.1529
-163.728
-69.9033
-99.2594
-64.3398
-115.44
-56.5151
-152.977
-57.5065
34.8806
49.3146
38.9587
102.014
-5.5794
69.617
21.8001
-71.923
22.6324
-50.6985
-29.7948
-88.4994
-47.7307
-46.3092
-42.1056
-83.1366
-52.7402
-22.2307
-36.2382
-18.5759
-52.6633
-28.3985
-40.593
-20.5728
-33.5707
4.38719
-14.4539
-13.2208
-47.3258
-1.8239
-27.1166
-32.409
-21.7462
-22.1383
-53.6921
-43.3547
-31.944
-28.52
4.9605
7.80663
6.25553
4.89882
5.16279
0.889191
3.53595
-0.0410884
3.69971
-1.10015
-3.82455
-3.88838
-4.74018
-2.74191
-3.75445
-2.91475
-4.20231
-3.33229
-3.16649
-1.8232
-1.04968
-2.05541
-0.865974
-1.36243
-0.447836
3.7593
4.64424
3.85201
-1.79558
-2.58297
-2.95769
-2.15127
-1.46802
-1.30806
-0.106159
-8.15548
-3.01968
-0.628523
1.6514
-3.60022
-6.59922
-3.13856
-10.6664
-6.82387
-3.94606
-11.0589
-5.91006
-3.49804
-1.71671
-2.58581
-1.43998
-2.83813
0.182638
-1.06622
-0.197876
-1.75416
0.356299
-0.645583
0.655909
0.335584
2.48976
0.573121
-6.66095
-3.49127
-6.45438
-3.87246
-9.4449
-3.95053
-8.63383
-5.38477
-8.14656
-7.70754
-10.1347
-7.97284
-10.1191
-8.83735
-2.36015
-5.53569
-3.77304
-3.78343
-2.40439
-5.35326
-3.67738
-0.259962
-2.24744
-0.776565
-1.30502
-0.400284
-2.20749
-0.825477
-118.203
-185.923
-130.166
-135.553
-150.506
439.511
-41.8555
-100.212
-45.706
-92.0997
-51.1556
-36.4423
-127.162
-131.283
439.6
439.872
433.66
437.708
-43.0932
-114.974
-42.6334
439.737
-34.3586
435.75
373.901
-14.7334
-35.5176
-14.4205
-28.943
-11.8913
424.651
310.467
-2.64332
-10.2856
-1.12483
-8.65517
-0.626393
305.981
435.38
437.894
434.348
436.713
431.324
434.843
-44.1226
437
461.903
434.271
404.928
433.927
414.734
-14.4505
427.368
405.268
306.217
418.012
336.981
-0.908665
-10.9632
-0.307226
307.965
10.453
266.949
5.67921
437.287
432.435
435.399
428.708
433.666
427.71
432.196
404.518
436.795
348.197
433.482
412.405
432.791
441.871
453.803
352.899
442.822
303.54
444.603
239.737
-0.483809
330.111
-1.09568
239.158
2.81371
297.509
3.76075
434.75
432.218
435.759
426.841
431.509
426.093
431.207
408.41
435.229
393.386
432.728
433.639
430.978
475.504
320.6
413.721
320.452
423.674
291.945
369.306
286.563
0.569186
-3.50852
290.569
289.921
2.24172
436.203
431.543
435.645
427.309
431.925
429.563
432.986
376.844
435.025
-51.5013
431.502
415.988
430.991
378.708
-43.5957
-18.7551
349.968
213.396
411.48
269.248
-3.70342
-16.0669
-2.84941
228.629
2.82899
304.292
-6.9643
435.699
-85.5985
427.161
433.496
433.088
434.806
-52.9068
-56.1639
433.006
552.737
433.982
411.821
-18.8001
-50.7045
-19.728
405.847
315.497
395.496
-17.492
-4.48972
-15.4552
-5.97071
296.147
-9.68814
-15.2442
-5.59969
-161.661
-156.379
430.494
435.111
-80.0614
-138.811
-108.769
-68.0009
434.54
411.704
-117.147
-66.1133
-24.4304
-37.3799
-22.7842
-18.5027
-42.4314
-30.3786
5.27623
8.7986
8.04492
-2.18294
4.20718
-7.03017
-3.74289
-8.31381
-5.50262
-1.62328
-2.88582
-0.939518
-0.108415
-0.649067
-0.257039
1.07225
2.68745
2.02013
3.40754
-2.31222
-12.7006
0.57513
-11.4257
-12.5215
-4.94391
-12.1682
-8.30843
-0.581095
-1.10357
-4.47767
-1.83801
-0.668557
-0.0817528
-1.23016
-0.3232
3.88544
4.94549
2.29583
4.72885
4.51163
7.32924
7.30798
-12.2584
-2.37074
-13.4317
0.735348
-11.9758
-0.225454
-19.226
-6.07886
-13.9018
-10.0598
-12.9899
-9.59108
-20.249
-6.80409
-1.65916
-7.33464
-2.24259
-6.61045
-1.7818
-2.08998
-2.55904
-14.164
-5.33978
-17.9858
-2.09238
-20.551
-7.11903
-11.8121
-19.7307
-17.0307
-21.0465
-7.73847
-28.4637
-21.6135
-21.1285
-35.4057
-7.37628
-40.1951
-29.1047
-72.827
-19.6274
-34.8036
-27.1771
-36.7487
-30.4411
-65.9113
-38.0604
-79.2294
-177.683
-137.632
-67.7485
-90.7188
-168.389
-135.476
-36.3046
-84.6367
-49.9489
-74.4556
-46.0373
-95.0584
-38.8432
-145.3
439.387
440.205
-121.773
434.835
438.895
-43.5481
439.79
-34.9223
-99.826
-34.4479
438.186
460.824
-14.8682
-28.7306
-11.9589
-28.1255
-14.5808
407.063
291.55
-1.95934
-9.77961
-0.71655
-10.944
-1.81511
303.322
-2.38742
436.853
417.04
437.713
370.256
437.325
384.879
-11.5547
433.655
306.283
349.866
266.323
375.382
148.296
-0.196097
296.073
299.382
-9.9407
279.332
-0.283328
423.568
434.166
356.964
437.401
418.314
434.488
455.618
301.411
417.055
292.884
424.176
264.845
438.935
228.306
1.68137
327.37
4.58815
282.936
-1.01888
218.32
-74.0132
410.792
432.711
439.682
433.316
557.859
432.252
623.965
313.248
443.938
218.985
423.975
234.002
435.377
279.716
0.620001
293.324
4.37051
100.613
275.619
-33.3236
429.5
430.887
413.686
433.23
470.967
432.706
428.128
264.772
361.261
297.857
430.39
3.57965
437.937
191.108
261.99
-1.69285
195.187
-67.0737
374.737
431.817
442.808
432.272
446.413
431.972
421.422
269.267
421.337
288.236
452.605
232.434
379.462
238.351
2.24825
327.4
-2.07654
172.172
270.544
-0.817537
411.966
433.844
409.713
431.515
207.45
429.697
410.879
282.122
418.481
401.197
168.789
431.772
276.58
-14.7182
-4.74723
271.206
2.326
246.795
2.10796
435.079
-55.7549
-138.146
430.745
431.141
428.641
434.221
421.909
-120.141
-62.4892
430.366
410.654
433.154
-17.6714
-46.3093
-23.6995
433.047
277.436
-46.118
-20.4967
-5.80176
-17.8723
-2.8118
305.594
-4.1664
-17.7447
-5.36391
-151.31
-131.073
-161.937
427.513
-116.383
-170.371
-72.9147
-114.86
-72.8702
-54.742
-125.57
-65.5838
-28.1308
-41.4542
-25.2248
-46.7375
-23.3262
-39.2848
-26.3312
-54.1852
0.457722
-24.7278
-72.2997
-115.947
11.4603
-49.851
-44.0205
-32.0958
-29.7974
-92.7662
-49.9757
-46.4803
-42.7363
-14.3971
5.09335
-11.0329
18.9441
-43.7468
11.7307
-20.6473
-13.6666
-12.8192
-41.3551
-35.8896
-22.4821
-10.0291
7.94806
-8.27538
6.93131
-25.074
9.13984
-10.9255
-11.3153
-9.49344
-7.37764
-22.443
-18.2811
-13.4607
-10.1481
10.5741
10.9018
11.1162
3.43423
6.7357
-9.76103
7.82115
-7.72915
5.04381
-4.40442
-6.89945
-9.99686
-8.59421
-6.24009
-4.91852
-0.525806
-6.09966
-1.00338
-2.62759
-1.14859
-0.260121
-0.517429
-0.287731
-1.01964
-0.286829
6.32373
4.89786
-4.03601
-4.90014
-4.31748
-2.98605
-1.08755
-1.05164
-0.142282
1.35363
1.19728
-1.56954
-0.203398
-0.328439
-2.60294
-6.94714
-1.74938
-4.62497
-2.13079
-5.1987
-8.68539
-7.41212
-5.11158
-4.11166
-7.45083
-6.80665
-3.74401
-2.08474
-3.43951
-2.55684
-4.45968
-3.06165
-1.19349
-0.553132
-2.32128
0.32286
-1.76943
-0.643382
-10.9063
0.268976
-14.6917
-1.52961
-5.83841
-1.76644
-8.2017
-9.88503
-15.6721
-9.90272
-9.23358
-9.0259
-12.0187
-11.1495
-17.1053
-1.11047
-11.4893
-4.66487
-18.2561
-11.3744
-16.4741
-15.1658
-23.0698
-19.3305
-37.9219
-75.9789
-9.88481
-32.8942
-76.7759
-93.1861
-69.6809
-36.8224
-33.1292
-24.2633
-73.4165
-38.818
-34.095
235.179
-165.386
111.007
-111.657
312.175
434.644
-86.8699
-182.86
-125.921
-162.903
-123.272
438.092
440.564
-40.4428
-100.696
-34.0515
-94.4706
-43.5021
439.976
-20.5261
-24.587
-15.3844
-33.434
-20.2718
-15.2823
-3.4606
-11.4776
-3.54415
-9.40668
-3.03319
-10.919
-1.56843
-118.854
436.688
437.983
438.049
440.448
434.437
437.441
-32.8605
437.673
401.97
439.378
423.338
436.327
421.509
-14.3459
405.221
289.694
432.003
-12.2166
428.163
213.271
-2.80054
291.643
12.2979
-10.1452
-3.28547
267.059
-0.219394
559.817
436.021
426.154
436.399
356.73
435.809
358.937
264.562
411.647
254.068
417.045
275.077
445.762
124.522
2.15003
312.442
304.311
1.95868
260.984
-95.8436
383.272
437.545
417.163
436.12
439.048
430.325
500.052
196.133
440.138
251.972
437.84
186.021
407.081
165.463
-0.278851
370.661
-31.337
217.919
336.691
584.826
431.325
598.605
427.276
435.575
420.654
376.86
196.979
436.218
212.851
342.328
166.492
339.509
258.712
-35.5397
233.715
-33.8619
229.981
253.195
444.695
419.139
414.966
418.329
414.874
419.759
415.167
417.733
429.749
423.541
430.09
421.954
419.19
421.788
423.572
479.652
431.768
501.712
419.908
375.314
419.152
355.181
175.922
454.073
71.4352
340.692
258.209
277.271
255.936
174.773
251.072
408.249
254.83
628.748
458.449
433.715
206.933
424.389
391.4
429.373
440.165
208.558
394.869
226.167
268.546
198.829
443.588
245.36
396.933
2.96825
223.589
594.528
265.624
382.52
428.938
412.487
430.067
561.116
428.818
398.768
201.379
428.089
313.579
439.51
239.567
422.994
191.679
-20.2741
271.514
-4.74139
316.181
227.046
-1.09952
430.432
430.966
433.965
425.193
428.936
431.08
432.769
439.487
433.076
428.351
443.838
431.944
358.26
290.829
-19.9698
424.137
220.851
340.901
284.552
-6.15466
-17.5505
-8.10872
249.187
-16.287
285.215
-6.50144
416.155
166.17
-41.4907
329.229
419.877
181.185
-103.015
434.157
-156.475
-173.659
432.952
434.086
-133.862
-171.54
-48.6399
-123.615
-51.398
432.82
327.464
-127.11
-58.5707
-22.0327
-43.991
-26.4094
387.907
291.719
-46.7884
-23.6578
-6.51173
-16.3824
-6.64304
-8.25628
-16.9415
-7.0795
-128.223
33.0952
-128.078
-164.933
-1.75794
-59.9697
-52.1055
-42.2083
-122.734
-61.4895
-61.7216
-43.8557
10.7526
-23.0545
6.63084
-37.373
3.56116
-13.2075
-22.3229
-20.6545
-41.5062
-29.8497
-20.4106
-19.3771
-15.1577
6.08045
-8.71068
5.10011
-6.6626
4.69205
-3.27623
-15.6557
-10.9235
-9.81779
-13.2851
-13.8444
-9.34341
-10.1473
8.65168
3.49062
6.47942
9.60694
7.90456
5.39278
5.45856
-3.94046
4.01557
-3.52587
3.80472
-1.84411
3.88099
-0.917098
-7.6451
-5.13016
-4.49966
-6.21182
-6.86999
-2.59742
-3.79125
-2.92755
-3.23843
-2.04021
-5.29075
-3.86958
-3.40479
-2.74093
-0.823711
-1.74343
-0.346986
-2.27188
-0.774548
-2.30227
-0.395703
5.80408
2.60076
4.61294
-3.39151
3.90048
-0.738241
-3.92979
-1.49353
-3.05831
-1.62901
-2.97759
-2.75523
-0.150086
-2.48738
-0.217677
-3.14593
-4.37738
-4.72107
-4.24483
-3.13544
-2.65793
0.225687
-1.7349
0.0373948
-0.485526
-8.22455
-2.22593
0.147545
-0.49026
-4.33302
-1.79278
-4.50409
-2.23148
-3.33857
-1.71828
-4.20427
-4.14161
-6.99127
-6.32221
-4.49948
-5.11331
-6.80151
-6.33746
-2.70078
-4.79061
-3.60818
-4.47716
-3.2428
-5.01112
-3.91326
0.231218
-2.37311
-0.97169
-2.44055
-0.296351
-2.62948
-1.072
-149.961
438.073
440.415
-90.6138
-142.78
439.568
439.893
-41.2254
439.75
-114.79
-47.4503
439.624
431.787
-17.8883
-13.6076
-35.7499
-15.0947
437.63
-11.5092
-3.42388
-10.2839
-1.39934
-8.6967
-2.2642
-9.51345