/*--------------------------------*- C++ -*----------------------------------*\
| =========                 |                                                 |
| \\      /  F ield         | OpenFOAM: The Open Source CFD Toolbox           |
|  \\    /   O peration     | Version:  4.0                                   |
|   \\  /    A nd           | Web:      www.OpenFOAM.org                      |
|    \\/     M anipulation  |                                                 |
\*---------------------------------------------------------------------------*/
FoamFile
{
    version     2.0;
    format      ascii;
    class       volScalarField;
    location    "55";
    object      p;
}
// * * * * * * * * * * * * * * * * * * * * * * * * * * * * * * * * * * * * * //

dimensions      [0 2 -2 0 0 0 0];

internalField   nonuniform List<scalar> 
146404
(
-6.99768
-3.14721
-10.724
-6.37484
-12.1003
-7.08233
-3.62674
-2.81787
-5.49968
-19.3486
-1.57427
-7.24978
-3.64276
-10.2131
-5.6676
-3.07979
-6.80871
-5.45022
-3.57215
-9.33965
-7.38092
-10.5944
-7.39426
-3.80985
-5.40032
-7.42377
-11.2021
-8.98413
-3.96184
-1.65542
-8.1398
-18.1757
-11.3608
-3.38896
-0.90206
-7.0049
-15.3834
-9.56853
-3.54747
4.31589
-0.244798
-19.4826
-3.44984
3.20632
-5.28412
-14.6978
-9.52568
-3.72263
1.64606
-3.64714
-9.97592
-8.60304
-4.23321
0.333861
-2.60275
-8.27379
-7.48152
-3.61469
-1.93683
-1.93084
-7.33865
-5.98159
-3.37071
-2.10865
-6.90956
-2.48941
-1.7878
-7.95748
-16.6345
-10.2929
-4.76819
2.48305
-8.02424
-24.4648
-15.6975
-5.01687
4.53486
-10.1703
-33.118
-20.8376
-6.09639
6.96783
-7.56983
-26.0621
-15.804
-7.37831
14.0021
-5.90155
-31.681
-7.90236
12.0695
-7.79015
-26.3307
-20.9671
-8.20062
15.004
-4.58059
-27.7914
-21.9209
-8.63618
9.41493
-1.28001
-16.3256
-14.6534
-5.842
6.45543
-3.01302
-13.3131
-8.58809
-4.34222
5.83735
-1.36866
-11.6934
-2.32091
1.16044
-8.59922
-4.71742
-2.75155
-6.34687
-8.94089
-13.0205
-7.98359
-2.89698
0.308447
-7.67592
-20.3468
-9.92215
-3.86254
8.23415
-2.13458
-28.1942
-9.21664
-6.45426
13.5004
-11.0823
-32.8056
-22.6349
-7.49453
21.9016
-29.6414
-51.8955
-39.0814
-8.81904
35.2084
-33.5625
-64.2161
-33.637
-10.8402
46.4843
1.98743
-68.4235
-12.5948
37.7459
-24.0076
-68.6309
-43.3216
-13.5367
29.1609
-23.5988
-58.7164
-45.3686
-14.1037
25.9652
-1.65104
-34.1161
-31.0394
-11.5388
18.791
5.53294
-27.2886
-14.4136
-7.87526
9.60266
0.281161
-14.6782
-10.4349
-5.02233
3.5
0.193284
-6.95682
-6.7661
-3.70363
1.03071
-3.79497
-4.73082
-3.31263
-8.05656
-9.08498
-11.7171
-8.39128
-3.62265
-1.84582
-9.60686
-21.609
-11.4446
-3.54222
4.44127
-10.7097
-28.6416
-18.5266
-6.64974
26.8735
-7.96136
-52.2663
-22.08
-9.78542
57.8775
-22.7551
-97.74
-63.5651
-9.13484
100.3
-82.5196
-159.25
-92.1239
-14.435
111.121
-106.304
-191.363
-90.474
-21.188
140.76
-122.895
-80.0221
-32.1027
117.774
-107.928
-183.304
-106.932
-34.9105
98.6441
-56.9781
-146.943
-118.382
-33.5609
62.5438
-0.719451
-94.6433
-127.329
-21.3686
36.1962
8.97096
-53.2771
-42.5497
-13.2272
16.362
0.547072
-21.5351
-19.0177
-7.25784
9.33211
0.0527952
-11.3898
-10.5199
-4.27798
2.84972
1.57897
-5.67982
-6.83576
-3.52897
-10.8058
-9.00549
-12.1202
-7.21479
-3.43094
-2.77431
-11.098
-16.2791
-11.9296
-4.13851
1.74821
-9.87842
-35.1044
-16.4457
-5.1631
16.2074
-25.853
-88.4066
-27.4583
-6.39393
62.2182
-99.9685
-162.678
-65.5113
-11.8917
144.52
-86.9875
-170.416
-111.975
-15.028
310.537
435.604
-93.4685
-15.3108
381.338
434.265
435.635
410.773
384.715
431.25
434.751
430.008
309.352
371.941
430.44
434.043
422.419
305.411
428.758
-110.273
-30.453
178.038
-165.18
-41.8086
68.5805
-38.0925
-116.851
-97.506
-21.6364
23.9739
-1.47735
-43.9134
-40.8633
-12.0415
14.1351
5.02532
-20.5464
-22.4874
-7.19222
7.88176
0.322559
-9.33692
-8.90408
-4.80421
1.18403
0.790654
-6.13341
-4.99127
-3.09201
-2.66208
-7.80928
-18.6735
-5.58781
-2.51706
0.734069
-10.359
-22.3156
-12.2157
-3.84198
9.26274
-11.8287
-39.4641
-21.2769
-7.7178
40.9264
-75.7691
-120.623
-41.1735
-7.70352
134.418
-89.8397
-195.563
-87.2946
-10.7485
375.081
437.575
438.297
-11.8581
413.042
430.706
434.381
406.769
305.233
414.193
427.235
431.861
438.151
333.713
412.841
425.728
431.995
424.754
284.606
408.993
425.283
430.174
416.09
333.846
390.364
425.736
431.064
399.441
297.588
346.151
431.458
433.197
424.303
-37.9834
168.174
-68.7029
-126.714
-116.086
-49.2839
47.3865
-22.565
-85.2027
-72.5272
-17.2671
23.8003
3.74735
-30.5001
-25.558
-7.659
12.7095
3.23223
-16.9418
-12.3731
-4.02181
7.27698
1.80671
-13.1416
-3.65762
-2.67858
-2.12012
-7.54528
-16.0881
-8.32199
-3.76855
5.55331
-2.68425
-25.0419
-10.0446
-5.35768
26.4589
-27.1497
-10.1822
83.2101
-76.6536
-153.575
-52.5647
-14.8934
304.356
-179.526
-76.9503
-11.1992
414.173
431.76
436.541
392.263
277.59
417.553
428.21
435.659
379.265
259.451
415.587
424.565
434.456
431.759
331.516
413.713
421.757
430.329
432.493
213.999
413.013
422.743
432.146
455.413
310.864
408.53
423.61
431.424
349.77
301.89
385.943
426.459
427.93
429.307
317.398
300.378
428.03
432.73
-124.454
-42.0872
88.5025
-47.6885
-153.921
-112.236
-20.5476
36.3162
70.2311
-93.5958
-10.8427
16.4264
9.18074
-22.8888
-13.8854
-4.94384
7.50573
1.4335
-10.1913
-6.80248
-3.70919
2.6512
-6.25475
-4.27196
-2.58525
-6.11914
-9.12522
-6.75251
-3.72167
-0.342235
-7.23089
-17.7784
-10.8412
-3.5658
6.67414
-8.9377
-33.4949
-19.2789
-6.47142
28.9474
-27.6092
-61.1632
-33.8956
-9.87969
95.2923
-81.698
-183.974
-72.3481
-22.7279
380.318
437.227
438.459
439.435
-20.0958
417.51
430.688
435.51
388.771
265.268
417.53
426.547
434.302
460.734
174.189
415.399
421.912
425.944
302.138
242.445
409.364
417.794
413.646
340.264
256.115
411.203
418.685
420.895
295.171
234.935
411.726
422.217
430.637
441.976
168.117
398.743
423.212
428.303
413.262
258.155
347.289
430.658
433.928
386.575
318.891
126.246
-61.3789
-133.971
-135.603
-44.6136
28.5387
-0.182055
-54.2266
-35.6457
-11.888
15.4398
1.14688
-16.846
-16.534
-6.47686
8.5207
3.27243
-8.38043
-9.47528
-4.49996
0.943762
2.59901
-3.46129
-4.76811
-3.11517
-12.7537
-5.97933
-8.88187
-6.68485
-3.60565
-0.145305
-7.09097
-17.4862
-10.8029
-3.64655
6.95076
-9.09941
-33.6678
-19.5463
-6.66129
28.5035
-33.2343
-75.77
-43.8332
-10.3142
116.682
-63.3187
-161.268
-88.2454
-23.1243
385.956
438.139
438.048
420.872
418.122
431.524
436.455
442.039
345.9
418.392
426.964
442.608
447.82
198.285
413.37
422.309
418.272
337.941
275.393
409.321
418.144
404.624
339.055
264.269
407.349
418.338
412.559
337.652
259.851
413.12
422.889
429.018
456.384
211.637
402.307
424.043
429.4
442.493
258.981
353.767
430.214
432.718
416.365
322.774
139.214
-56.8887
-138.352
-126.538
-38.0413
25.6471
-6.54411
-49.406
-41.7037
-12.5306
16.5758
1.06761
-19.2672
-18.0235
-7.00024
8.90968
3.31183
-8.70595
-10.4255
-4.85507
1.04455
2.60069
-3.71144
-5.12742
-3.57816
-5.86963
-8.71763
-6.2966
-3.74945
-2.08113
-5.95078
-13.5432
-9.42182
-3.60593
6.19178
-5.33408
-24.6826
-16.7085
-6.10253
32.3147
-12.8308
-52.7479
-35.5924
-11.06
118.419
-82.7436
-169.789
-92.7158
-16.9149
374.349
437.208
438.745
414.068
-15.7083
416.086
432.175
436.041
427.234
277.375
419.57
429.168
439.483
441.382
205.768
417.697
424.438
428.85
330.322
236.747
414.637
421.261
418.402
337.41
270.154
415.587
421.898
425.746
333.384
261.46
412.752
425.706
434.134
440.86
144.708
399.326
427.341
430.638
353.44
265.639
338.212
434.528
434.12
423.618
322.64
108.211
-52.0327
-123.379
-152.04
-17.0652
35.4637
2.41589
-54.33
-52.2372
-10.5107
16.3086
4.48773
-18.1815
-18.6575
-5.10245
6.7696
1.7792
-8.50925
-8.63786
-4.49926
0.246226
2.19179
-3.8242
-5.3074
-3.08957
-0.203924
-6.03588
-15.1854
-6.5015
-3.06347
7.682
-4.13813
-24.3542
-5.37952
-5.11574
25.8053
-14.0277
-8.26065
73.1487
-46.8553
-150.435
-80.3263
-13.5794
286.652
-151.36
-109.097
-14.6265
397.537
433.904
436.932
439.276
294.777
416.507
430.805
436.321
432.966
225.831
418.781
429.245
434.382
447.092
336.268
418.562
432.386
440.613
446.067
229.322
414.969
427.466
434.096
432.088
259.036
408.416
427.606
431.929
374.594
262.149
385.211
432.187
431.544
374.303
302.059
292.865
432.538
434.799
-109.486
-30.3971
64.9798
-51.5528
-185.067
-96.1869
-12.9618
25.0852
4.30064
-60.0922
-7.17857
11.9462
10.9898
-26.3271
-17.5082
-4.45365
5.30119
4.57929
-12.689
-9.28275
-3.53096
1.45706
-7.26144
-5.37929
-2.86852
-3.43522
-7.79872
-17.3776
-6.80596
-2.90987
0.953044
-8.59901
-17.9742
-11.7079
-4.74866
8.51699
-10.1353
-34.9395
-24.3396
-6.59303
34.564
-37.2649
-95.5237
-52.3538
-9.21159
125.783
-67.3603
-140.639
-107.967
-20.3256
332.565
439.541
440.118
-19.7259
393.8
434.684
436.528
430.916
267.431
406.145
430.8
435.035
448.256
254.592
408.084
430.343
439.44
360.283
174.464
402.994
429.953
433.546
442.888
264.028
384.916
433.313
432.401
404.499
293.093
337.473
435.373
435.42
343.278
-25.5587
93.5985
-104.106
-170.246
-112.447
-12.53
10.2503
-12.5221
-47.4699
-29.3945
-9.29967
4.52306
-7.32839
-33.5178
-23.6243
-6.48289
2.82747
-8.74959
-18.6401
-11.3281
-4.78147
0.44107
-5.36323
-17.4355
-6.36198
-2.9785
-11.4336
-7.19783
-10.4957
-6.9264
-3.69885
-3.57298
-7.6623
-12.1081
-9.26631
-4.12627
2.3169
-7.04294
-21.238
-13.8527
-4.32553
16.4446
-9.51523
-35.388
-30.1847
-8.24088
51.1644
-39.0353
-110.012
-64.157
-11.2244
123.122
-57.7101
-159.896
-109.225
-25.8224
283.429
436.543
-131.851
-93.1439
-26.2655
354.296
436.01
438.637
394.791
361.709
436.601
439.164
404.175
322.883
351.497
436.129
437.271
423.882
282.356
434.879
-93.3906
-23.3222
94.9951
-113.801
-12.7676
33.2788
-36.5752
-84.8027
-49.8929
-9.02739
4.26845
-8.03145
-26.4713
-16.2993
-5.29303
-1.03746
-8.80366
-16.745
-11.0255
-4.17605
-2.81441
-7.2027
-12.7603
-9.34141
-4.17162
-6.37306
-6.29804
-10.6453
-7.20581
-3.53616
-7.50429
-6.77345
-9.53488
-7.23814
-3.23086
-2.03328
-6.38455
-14.0409
-9.10531
-3.48747
5.39905
-6.78926
-22.2372
-15.7036
-5.07568
22.4194
-0.535243
-44.8467
-22.8074
-7.45778
37.5422
-27.0576
-76.5935
-39.7605
-10.3602
52.9683
-78.3591
-129.017
-66.7579
-12.6897
73.467
-136.263
-139.344
-65.5459
-19.9135
81.0023
-132.571
-80.2754
-17.5075
76.0496
-113.539
-165.066
-79.6206
-8.94323
48.003
-78.7779
-135.195
-67.0895
-10.4626
29.4825
-18.4196
-83.0534
-50.055
-8.40216
13.8554
-7.66523
-51.3229
-22.8027
-5.55272
2.46069
-7.29497
-21.8207
-15.3663
-4.33036
-2.73694
-7.60935
-14.0685
-10.4181
-4.58228
-6.11236
-6.85018
-10.6792
-8.66625
-4.28974
-4.90436
-7.02655
-11.8313
-7.36622
-3.23783
1.59921
-5.26907
-18.7232
-9.58712
-3.70749
5.39787
-5.28695
-25.3508
-8.92547
-4.5288
5.29415
-7.37649
-25.0217
-16.1463
-5.53743
7.21232
-11.3438
-33.5888
-20.116
-6.52017
21.4194
-16.0159
-45.5935
-30.6783
-7.22343
27.379
-25.0842
-39.9245
-7.06178
8.55246
-19.9317
-51.2862
-20.9174
-6.50166
4.04705
-8.58955
-29.199
-18.2817
-6.0376
5.93789
-8.4076
-27.0152
-19.9752
-5.15393
3.04818
-3.8456
-27.6829
-13.8856
-3.65079
-1.19995
-5.73183
-19.5967
-9.32178
-3.43699
-5.8181
-7.12761
-11.965
-8.24322
-4.0601
-6.67302
-9.31099
-7.05511
-3.98701
-2.57106
-0.731255
-2.30721
-2.62306
-6.7
-13.0221
-7.98954
-3.70755
0.0860896
-5.9931
-14.8116
-10.6141
-4.57226
-0.0285196
-7.07486
-17.9667
-10.6363
-3.46405
3.64471
-6.51722
-20.8707
-14.2059
-3.67188
7.43893
-8.85036
-16.5717
-3.66061
-0.278266
-11.2868
-23.2933
-9.98413
-3.66308
0.524986
-7.96679
-16.0088
-10.063
-3.7137
-2.89209
-8.30978
-15.4747
-10.8413
-4.55362
-4.48835
-8.25953
-14.4479
-8.74784
-3.76905
-3.46151
-0.50847
-21.4367
-10.8935
-2.66776
-13.2332
-5.52643
-3.02576
-10.0586
-6.08342
-9.56177
-6.00821
-3.1607
-6.32114
-6.16223
-9.18429
-7.50938
-3.77872
-4.38443
-6.03583
-11.5523
-8.37959
-3.73607
-2.69819
-6.61957
-13.6355
-8.28988
-3.59559
0.492459
-8.4043
-9.83062
-3.74667
-3.64641
-9.64779
-14.6386
-8.61832
-3.77933
-6.62303
-8.73999
-11.8341
-8.87409
-3.90577
-8.01456
-8.068
-11.1478
-8.72983
-4.27529
-10.157
-7.66192
-10.8658
-7.3051
-3.77207
-11.2773
-5.77793
-10.5238
-6.79677
-3.23905
-8.58761
-8.52423
-4.32191
-2.41713
-11.8331
-7.95462
-13.0412
-7.40601
-3.49755
-7.17935
-3.99215
-10.4393
-10.991
-8.36187
-7.26529
-4.13491
-3.54355
-0.182075
-7.87886
0.223233
-11.0596
-10.7348
-18.8576
-11.4786
-8.48077
-19.2926
-9.11786
-7.10832
-4.06603
-9.01785
-2.37818
-3.52126
-0.206966
-2.06363
-0.272016
-7.48856
10.5905
-2.04206
-5.49448
-3.15995
-10.0768
-10.5021
-6.95342
-20.3973
-2.17907
-5.3599
-3.28222
-1.93503
-0.247987
-2.95353
-0.244121
-2.75971
-3.6719
-9.35983
-9.86007
-6.89153
-5.40429
-3.40438
-2.96821
-0.290145
-6.98497
-7.22789
-10.1863
-10.5052
-8.09994
-6.9357
-4.18912
-3.56384
-0.040735
-13.2451
-7.08768
-8.7217
-6.95441
-7.2661
-9.99311
-7.25651
-9.00681
-10.2914
-8.08935
-9.94624
-8.83029
-7.00222
-4.36005
-7.67134
-5.04705
-3.73023
-0.1618
-3.92906
-0.679249
-7.97599
-6.76291
-5.98746
-6.33035
-7.10373
-9.01846
-7.03497
-9.81627
-9.94891
-9.18603
-11.2164
-10.0982
-8.06487
-5.38294
-9.00758
-5.8588
-4.09962
-0.62331
-4.39138
-0.786236
-11.1743
-6.18238
-5.70714
-5.90121
-4.52559
-5.07613
-6.49927
-10.2558
-6.99313
-9.28883
-6.92199
-10.5044
-8.9165
-11.0935
-9.07399
-11.9549
-10.9477
-13.4892
-12.2825
-5.19983
-7.02087
-4.50337
-8.73772
-6.42866
-9.4489
-6.72287
-3.49232
-0.491512
-3.83987
-1.45198
-3.8835
-1.50496
-5.85613
-3.81757
0.358949
-3.17114
-3.85581
-0.282595
0.923386
-11.3484
-7.59213
-19.2186
-7.22895
-11.4712
-12.2976
-22.3727
-9.32838
-19.5312
-10.4642
-13.3301
-11.2907
-23.281
-13.0024
-4.62964
-4.83299
-3.14869
-7.82841
-6.18275
-5.19846
-3.31835
-0.53996
-2.2901
-0.535919
-3.91681
-1.66451
-2.80762
-1.29156
5.74135
-6.86714
-1.96733
2.00873
10.7922
0.407873
-0.284155
-3.44417
-9.78159
-1.23566
-3.1874
-11.132
-10.4825
-7.59087
-15.1577
-12.0049
-10.5113
-2.30681
-5.26824
-3.65966
-18.8323
-4.36303
-7.96078
-5.0109
-0.41298
-2.91927
-0.485713
-3.42085
-1.39207
-3.67525
-1.65482
-2.86677
-2.94256
-0.298559
-1.49606
-0.884602
-1.93144
-9.31916
-3.12484
-6.59426
-4.59888
-9.20609
-4.50273
-7.28433
-7.89286
-7.14921
-6.38883
-11.9769
-10.8497
-9.44038
-8.64593
-3.8038
-5.57343
-3.81267
-7.13831
-5.03195
-7.3749
-5.58176
-0.556424
-3.28914
-0.244242
-3.53062
-1.54576
-3.6781
-1.5647
-0.66979
-1.66435
-1.67272
-1.69351
-6.16705
-3.41553
-5.52993
-2.56133
-5.68597
-6.1373
-8.02409
-8.27233
-7.10642
-7.59767
-3.84215
-6.89858
-5.32081
-6.94113
-4.96278
-0.237204
-3.35929
-1.37839
-3.88286
-0.704788
-2.07334
-1.70883
-3.8953
-1.51776
-2.47129
-5.46533
-1.81393
-5.20961
-6.85732
-7.19548
-6.6577
-6.52587
-6.63867
-4.68935
-5.58712
-4.1198
-3.72867
-0.667413
-3.32805
-0.590333
-4.55393
-1.44082
-1.72436
-6.09378
-6.81539
-6.44389
-5.78208
-3.81136
-3.31864
-0.350993
-6.52259
13.8581
-3.83363
-2.86309
-2.44006
-0.461868
-11.494
-6.90715
-4.95781
-1.151
-5.05984
-5.01021
-7.17659
-10.6865
-10.949
-8.27705
-13.0543
-11.0975
-8.89635
-12.2374
-14.327
-12.0326
-6.84443
-4.3819
-1.18386
-3.6962
-7.19184
-4.67409
-3.43209
-0.448748
-2.80179
-0.551607
-3.11743
-1.25737
-6.84238
-6.55003
-6.26936
-4.80477
-4.89997
-3.7874
-4.82294
-10.0146
-7.50787
-9.3562
-7.89665
-11.8207
-7.66124
-11.3198
-9.06673
-10.9647
-10.6017
-13.5687
-12.3569
-13.714
-12.7175
-4.9018
-8.06871
-6.22268
-8.65413
-6.11548
-9.77379
-6.98402
-0.610091
-3.5547
-1.41366
-3.96134
-1.70342
-4.11909
-1.65369
-12.7546
-12.1683
-23.1393
-7.26306
-15.9119
-5.42154
-32.0547
-13.587
-24.3234
-13.9363
-19.6085
-17.3314
-32.7139
-20.601
-3.07651
-12.4044
-5.87488
-2.04081
-17.3213
-16.2879
-13.3733
-12.0786
-23.1885
-19.5555
-17.9529
-0.161759
-1.57807
-1.0692
4.30774
1.88508
3.04283
1.91903
-0.929552
2.58175
1.84431
3.75087
4.66682
-6.11453
-2.84013
-8.3487
0.147907
-14.7878
-7.1791
-11.052
-10.1107
-15.0335
-8.94272
-4.16877
-7.20873
-4.94425
-4.50421
-4.39464
-0.623912
-3.42136
-1.52464
-3.10395
-0.625126
3.67156
7.61531
2.50501
-16.6331
1.31582
-9.52424
-17.0088
-9.50881
-10.5088
-6.61523
-7.49778
-2.38729
-4.62738
-2.40105
-2.1123
-0.527787
-2.19811
-0.286344
-9.76338
-8.07912
-8.63674
-10.8119
-11.4853
-8.99906
-7.39027
-4.36402
-3.32061
-0.575864
-4.81044
0.232672
-8.12506
-7.46767
-4.22451
-4.84404
22.1497
-8.90065
-11.493
-8.3025
-16.7039
-35.775
-12.5438
-10.6789
-17.1447
-11.5733
0.366144
-3.42385
-6.83222
-4.76068
-6.64016
-4.75166
-2.61903
-0.554058
-2.92889
-1.19522
-3.08124
-1.31011
-7.05795
-16.314
-7.37693
-19.8134
-3.74254
-28.5831
-16.9556
-12.8708
-19.9598
-11.5601
-27.0784
-17.9658
-21.2279
-5.6038
-34.5402
-13.0565
-33.1289
-8.90318
-63.6863
-23.7209
-34.9838
-23.1912
-39.7491
-35.6314
-58.5242
-44.5349
-2.23465
-20.6245
0.0439838
-2.2913
-38.6031
-25.9795
-23.2987
-22.2678
-51.1276
-43.1028
-38.6065
-11.7909
1.24959
-16.0094
3.71469
-20.3612
6.12657
-17.4471
-12.3816
-16.2439
-9.40145
-23.497
-20.394
-18.6869
-14.5911
9.77024
-2.12124
2.67821
7.35305
7.6964
4.32739
3.86029
1.17165
-8.39871
3.3982
-12.6115
0.0826729
-5.90151
-10.0989
-10.1831
-7.41957
-15.8522
-13.2456
-9.72149
-9.35415
-3.09475
-4.47072
-3.15793
-8.91828
-5.03732
-6.51485
-4.95643
-1.08282
-2.58664
-0.590048
-3.56909
-1.5216
-3.60884
-1.72039
2.35195
2.63045
2.14607
1.25703
-7.59145
0.694523
-5.13745
0.894043
-3.17867
-6.38246
-7.09561
-7.3512
-4.06251
-5.39886
-3.20736
-6.51827
-4.33572
-4.75712
-3.96879
-0.341935
-3.60515
-0.772728
-3.33666
-0.305777
-12.0577
-8.90346
-8.71799
-9.87842
-10.3324
-8.65802
-7.38729
-4.76504
-3.65342
-0.564033
-8.77177
-8.03983
-10.2524
-8.70097
-7.19478
-7.60801
-8.92113
-10.1618
-8.88879
-10.2222
-9.15649
-11.2277
-11.3285
-10.1488
-10.6147
-9.17221
-12.4738
-11.2873
-7.53946
-5.58152
-7.81881
-5.00527
-8.47371
-6.10139
-3.29513
-1.30519
-3.69082
-0.58665
-3.4578
-1.33673
-20.2911
-6.53
-32.7801
-9.59464
-19.9546
-5.85254
-35.0781
-14.7539
-29.1155
-23.5753
-23.8316
-20.9142
-37.0153
-27.631
-29.71
-10.0789
-27.0401
-2.17679
-44.2145
-7.56445
-53.9663
-18.7508
-29.319
-29.0824
-44.3427
-29.2827
-63.7452
-50.1382
-56.7491
-7.57441
-75.0383
-118.025
-164.75
-98.8221
-177.84
-54.4002
-68.2382
-55.0291
-138.129
-93.8072
-177.689
-83.5454
-8.38355
-52.251
-67.9133
-85.8228
-168.487
-60.3728
-57.697
-51.7483
-82.9473
-171.058
-101.362
-21.8943
4.13271
-23.8599
4.41968
-63.7408
46.494
-37.8358
-28.1286
-28.5335
-84.3172
-108.525
-67.0963
-25.1387
4.73913
-16.6929
17.4826
-49.4814
5.22161
-16.7598
-22.2874
-19.9143
-17.2825
-48.4586
-51.9259
-21.3873
-25.1149
3.31487
-3.79799
1.58214
5.97511
4.23799
3.1511
2.81302
-3.41236
0.800217
-2.55971
1.0865
-3.92116
1.27235
-1.85639
-7.98894
-4.37721
-5.72015
-8.61045
-9.67919
-6.10431
-7.32928
-5.35991
-4.96319
-4.18477
-9.23134
-6.76871
-7.34158
-6.11091
-1.70988
-3.28698
-0.620638
-4.56581
-2.0497
-3.8879
-1.72562
1.27387
1.6147
1.89388
-2.84994
1.281
-2.69519
-5.28005
-4.95695
-6.26226
-3.93137
-6.34296
-4.51548
-0.357643
-3.59141
-0.738648
-9.22328
-11.4503
-11.5872
-8.03301
-7.60622
-4.12524
-3.76284
0.0692161
-10.7164
-8.78867
-14.3612
-8.77684
-7.38087
-8.2502
-8.90135
-10.1889
-8.95005
-11.2817
-9.41414
-10.9598
-10.644
-9.20134
-11.419
-8.15634
-11.9395
-10.7623
-7.83181
-5.05249
-7.40534
-4.11421
-7.97765
-5.60384
-3.77211
-0.569406
-3.59499
-0.107481
-3.20626
-1.19232
-50.6791
-10.1593
-72.6247
-40.7247
-94.5683
-80.5059
-166.181
-37.1652
-77.5319
-76.2282
-101.989
-72.5964
-170.42
-134.029
-87.4722
-83.6276
-117.387
-5.8944
-101.772
-125.531
-97.7046
-149.583
-152.725
-145.891
-136.9
-123.528
-129.27
-87.6109
-182.566
-130.108
434.163
436.688
-154.388
-190.925
-123.235
-135.542
-118.613
436.079
-39.2606
-89.685
-41.7587
-89.5096
-29.2179
-26.9909
-3.71095
-17.2716
-5.10678
-18.294
-3.51533
-16.59
-1.61177
-101.876
138.811
-178.763
334.055
430.019
345.659
425.517
-188.706
-159.083
-181.751
435.755
436.677
433.112
435.617
-110.609
-179.584
-79.2216
435.956
387.825
435.255
365.586
-47.4069
-78.4221
-49.5782
418.349
-25.5653
442.154
-6.57648
-28.2628
-6.15569
-19.6815
-2.17951
-1.14157
-133.746
123.101
-131.442
345.856
425.86
339.147
424.47
-122.528
-176.154
432.875
434.784
432.413
434.786
-79.0488
-182.55
-113.657
434.631
401.852
434.307
359.797
-50.1403
-91.4596
-59.6163
428.052
405.358
-44.2063
-9.26123
-31.1777
-9.07216
-0.018555
-34.2149
-2.67161
-172.982
-56.5048
-140.044
432.151
434.908
430.623
-130.587
-161.618
-153.165
434.45
385.507
-125.461
-61.1234
-111.497
-68.9328
416.525
-44.6568
-114.112
-55.4058
-8.90094
-37.4188
-7.8171
-36.0461
-3.57503
-31.5568
-2.42435
-91.6029
-50.8382
-80.7173
-114.981
-74.7997
-88.1058
-158.959
-129.085
-153.506
-121.856
-129.659
-95.302
-118.844
40.0747
51.1681
39.2907
106.893
23.444
73.5264
29.2609
-67.915
21.3197
-66.0629
-14.9126
-83.0362
-144.218
-60.8634
-76.4523
-102.68
-169.519
-63.56
-70.8145
-46.9581
-131.377
-84.2473
-158.941
-70.9322
-39.8156
2.95297
-18.5483
-15.6139
-51.6437
-3.00832
-33.0645
-60.5819
-29.8741
-37.7132
-88.782
-114.758
-49.698
-62.2535
2.23411
5.01975
3.51449
1.75082
2.10657
-1.52027
1.26088
-2.81901
1.03618
-3.48086
-6.77917
-7.16985
-8.03443
-5.21747
-6.07742
-5.36907
-7.54747
-5.84697
-5.32961
-3.98894
-1.55067
-3.77367
-1.63193
-3.15192
-0.632307
0.512503
1.74825
1.18615
-4.06018
-5.01986
-5.58568
-4.57701
-3.62748
-3.16242
-0.323234
-14.9735
-9.37195
-7.16801
-5.15815
-9.51803
-11.8668
-9.85068
-16.7145
-11.949
-7.87534
-16.5711
-9.26576
-7.13981
-3.7409
-5.24248
-3.51554
-4.39869
-0.0611954
-2.74452
-0.476434
-8.42475
-6.32618
-7.32733
-5.84052
-6.44798
-3.98807
-6.07704
-11.9967
-9.99808
-12.6014
-10.6546
-15.4635
-10.7991
-15.1587
-9.29496
-13.9062
-12.3836
-15.2828
-11.8807
-16.2816
-13.8795
-4.42203
-8.88894
-6.24471
-6.06398
-4.56184
-8.36788
-5.7249
-0.486327
-3.59737
-1.40132
-2.88638
-1.16521
-3.57077
-1.46572
-165.219
-105.404
-163.817
-77.7691
-206.495
438.764
-115.139
-177.248
-135.07
-196.612
-130.845
-106.922
-162.553
-133.347
438.497
439.039
432.381
436.61
-133.056
-141.322
-113.455
438.899
-102.422
434.873
375.82
-33.1132
-94.7008
-32.2261
-81.1942
-21.9987
424.501
319.614
-3.49789
-20.0528
-1.28646
-12.2784
-1.06863
317.309
433.76
436.855
432.99
435.573
430.277
433.704
-111.418
435.948
460.662
433.596
406.194
432.83
415.514
-27.4139
425.109
407.415
316.944
419.132
348.655
-0.646015
-14.0663
-0.0522233
319.148
18.1586
277.927
8.00357
436.169
431.853
433.745
427.573
432.415
426.67
431.004
402.322
435.201
343.587
432.514
412.952
431.661
442.115
450.35
353.231
439.571
313.482
444.231
248.101
-0.200373
331.179
0.381993
246.27
2.86929
303.975
0.193983
433.058
431.474
434.429
425.9
430.299
425.376
429.969
404.213
433.667
391.553
431.607
434.298
429.742
474.935
324.417
411.501
325.904
425.077
298.113
371.607
294.052
0.983947
0.0197261
298.218
297.117
6.63911
434.524
430.518
434.481
426.268
430.676
428.457
431.888
373.736
433.832
-123.175
430.269
415.35
429.773
377.265
-110.047
-45.6503
353.159
224.718
411.633
278.981
-0.455948
-33.3629
-1.68851
238.695
6.22929
316.375
-7.74663
434.277
-81.5201
426.318
432.341
431.895
433.633
-123.469
-102.819
431.804
550.153
432.824
411.325
-47.2977
-96.4171
-67.7998
404.279
324.852
396.628
-51.6623
-2.83431
-46.5611
-6.85848
306.134
-14.0616
-37.1382
-1.38221
-72.7218
-82.7822
429.552
433.788
-67.5254
-103.436
-120.732
-163.787
433.339
410.825
-116.136
-146.064
-81.3066
-158.241
-94.6404
-57.573
-126.67
-94.2607
2.1967
5.67399
4.72729
-4.45138
1.05524
-10.0581
-6.0415
-11.1665
-7.53559
-3.64282
-4.48074
-2.88855
-0.600328
-2.67999
-0.60747
-5.30007
-4.15693
-3.70815
-2.30434
-9.13948
-19.0623
-4.74054
-15.8345
-18.2901
-7.12677
-16.3892
-11.9021
-2.27903
-3.28039
-7.79224
-4.01383
-2.40897
-0.562238
-3.1793
-0.56231
-3.13189
-1.21679
-4.48401
-1.05602
-1.17673
1.68065
1.77261
-19.0329
-9.35609
-20.7367
-4.50398
-16.3289
-5.23368
-24.5511
-9.06164
-20.6442
-14.7636
-17.0418
-13.2806
-25.8827
-10.4492
-4.12049
-10.9337
-4.79044
-10.0341
-4.49812
-4.10669
-6.43926
-21.7206
-12.4553
-28.2517
-6.93056
-26.7585
-13.4595
-17.2763
-31.3605
-25.9897
-27.7308
-11.3895
-35.9229
-32.3427
-27.0287
-50.1645
-14.0375
-57.5683
-36.9445
-113.861
-36.447
-59.6336
-50.4657
-53.3351
-42.8307
-117.142
-67.4281
-128.107
-118.129
-183.361
-68.0189
-149.039
-133.4
-185.113
-82.1542
-198.289
-130.462
-153.241
-111.293
-185.014
-109.737
-191.593
438.603
439.318
-186.955
433.874
438.064
-117.782
439.017
-100.246
-184.413
-93.8581
437.442
459.503
-27.9191
-79.6713
-22.6674
-67.26
-21.9574
406.924
297.009
-3.32653
-12.6353
-0.813958
-14.3541
-1.68501
309.83
-3.23593
436.044
417.823
436.81
371.526
436.522
385.168
-19.9089
433.979
316.877
353.079
275.649
380.284
154.286
-0.349941
306.599
306.988
-9.96134
284.231
-0.0383181
423.238
433.073
361.315
436.546
411.152
433.901
454.83
311.344
417.809
301.844
420.736
270.848
440.641
251.831
2.07365
335.976
7.49548
288.391
-1.5101
232.805
-53.8266
414.436
431.747
440.048
432.561
558.679
431.38
621.992
320.911
443.046
222.544
425.171
250.87
432.655
280.585
-0.390165
304.505
3.8481
132.377
274.014
-31.5218
430.244
429.852
416.695
432.376
467.805
431.858
427.832
274.224
365.439
306.568
428.361
5.75133
437.139
198.54
269.223
1.78476
196.063
-71.7373
376.335
430.578
441.703
431.485
445.177
431.3
423.56
275.663
424.128
299.651
451.305
233.21
387.268
231.768
5.32765
338.567
-3.41092
165.345
268.89
-1.07044
410.894
432.833
409.064
430.893
211.017
429.242
409.799
294.295
417.962
400.956
148.002
430.661
288.15
-27.0811
0.583779
275.88
0.533861
258.978
-2.48382
433.909
-63.8865
-108.794
430.195
429.934
428.842
433.609
420.506
-122.672
-135.937
429.701
410.492
432.529
-53.2756
-120.491
-75.3814
431.038
288.347
-121.726
-58.5944
0.271002
-52.1704
-3.0586
319.227
-4.22057
-45.4209
-2.52074
-111.328
-73.2416
-132.089
428.035
-69.3488
-157.653
-148.016
-155.237
-148.634
-134.769
-168.162
-150.149
-84.2633
-118.452
-82.2183
-124.321
-68.7272
-124.302
-87.2738
-59.7462
-2.7976
-29.8667
-49.5564
-141.772
8.80649
-59.4049
-91.0934
-43.9085
-51.9824
-142.298
-127.736
-58.6409
-62.0647
-18.2149
2.0898
-15.3392
17.0706
-51.2914
12.5892
-31.179
-18.3714
-18.2649
-51.4405
-47.6864
-27.5946
-14.2919
4.38345
-11.8989
6.88264
-28.6089
7.3541
-13.2628
-15.7377
-12.6455
-9.35604
-26.4322
-22.7123
-16.071
-12.3033
7.18754
8.24584
8.60583
0.631143
4.74693
-13.1031
5.71628
-9.96142
3.3105
-6.43695
-8.45829
-12.4499
-10.9013
-8.3287
-6.68653
-2.35205
-7.98702
-2.69468
-4.02271
-2.57973
-1.28006
-2.5352
-1.20735
-2.27455
-0.57817
4.46449
3.14996
-5.93266
-7.04282
-5.79878
-4.21634
-2.61343
-2.43946
-0.249762
-4.11045
-4.19492
-6.07162
-5.1706
-5.18097
-7.52377
-11.2934
-6.07251
-8.8425
-6.84207
-9.68465
-12.9261
-11.0816
-9.32027
-7.49404
-11.9109
-10.7787
-6.82054
-4.59115
-6.69528
-4.2837
-7.75181
-5.5438
-3.07327
-1.29383
-3.71634
-0.027906
-3.52071
-1.45106
-15.4871
-4.81517
-20.0028
-6.16601
-10.796
-6.58772
-13.3898
-13.9128
-20.9087
-14.5024
-14.1316
-13.415
-18.1484
-16.1494
-23.4283
-5.32082
-17.6695
-9.48098
-26.9394
-15.3715
-24.0525
-22.5697
-33.4106
-28.8926
-37.1746
-131.101
-13.2257
-48.0351
-60.4294
-149.989
-129.39
-60.9801
-51.5303
-43.3952
-148.648
-91.1939
-31.984
232.094
-135.033
110.108
-66.7849
310.576
433.133
-156.405
-136.26
-183.926
-94.3237
-171.374
436.956
439.516
-82.6601
-182.817
-109.936
-171.883
-96.8817
439.149
-33.6662
-76.7737
-22.6835
-77.0677
-42.3514
-32.0098
-4.89213
-14.4336
-5.33813
-16.9965
-5.28687
-19.2349
-2.49277
-184.19
435.621
437.219
437.256
439.193
433.807
436.536
-96.7959
436.99
403.068
438.484
421.842
435.714
421.483
-18.514
406.094
294.207
431.299
-25.6256
427.949
220.316
-2.327
297.378
6.52775
-19.0564
-1.45481
275.266
1.53536
558.124
435.195
426.733
435.728
358.198
435.195
361.583
269.784
414.096
251.688
416.629
281.576
444.919
54.649
2.56422
315.332
313.437
4.28881
227.788
-110
384.27
437.016
418.056
435.408
439.072
429.807
492.954
197.508
440.822
256.78
437.713
148.174
409.276
166.895
0.0868974
373.995
-12.8318
210.817
334.997
583.092
430.507
595.531
427.195
441.914
420.702
375.574
218.429
432.952
213.058
352.431
165.077
335.565
270.734
-16.004
236.538
-33.8933
233.08
270.38
497.889
416.803
412.872
416.376
411.115
415.599
412.114
414.414
428.727
421.818
429.206
418.754
420.72
419.197
422.104
473.338
431.086
492.581
419.928
375.872
421.176
355.533
177.981
453.879
72.8852
337.557
269.722
279.555
251.838
169.18
266.884
458.92
246.91
711.134
455.432
432.834
210.798
424.97
395.317
428.922
426.966
209.601
396.53
200.239
271.865
192.145
441.212
234.853
382.658
-0.964765
219.615
673.515
257.203
388.071
428.439
410.783
429.943
549.907
428.784
402.624
184.108
427.912
329.297
439.896
230.076
426.979
208.672
-25.5887
286.706
-0.591208
309.071
236.794
-3.2136
429.827
431.629
433.443
424.942
428.781
430.704
432.359
439.666
432.427
428.361
444.614
431.593
359.207
306.095
-55.9763
424.907
236.114
344.289
300.715
-9.07826
-43.5131
-0.939675
262.914
-27.4283
302.534
0.787001
417.655
170.199
-9.39678
330.845
419.09
187.432
-75.7583
433.58
-95.1676
-156.911
432.52
434.146
-82.0416
-113.699
-133.135
-156.858
-147.809
432.912
326.33
-126.079
-152.69
-62.5549
-137.619
-77.6028
389.882
305.598
-143.644
-71.3817
-1.71038
-40.0343
-10.0049
-0.297937
-40.7817
-9.94271
-152.671
28.4623
-54.3752
-106.125
6.69958
-72.431
-128.482
-71.3599
-128.519
-159.417
-91.4396
-101.261
11.1013
-27.3489
10.8175
-45.0282
4.1121
-15.7763
-27.2468
-25.4452
-56.4584
-66.6901
-26.9144
-31.6797
-18.0703
4.20793
-10.946
4.4024
-8.09623
3.24067
-5.64201
-20.1818
-13.3234
-12.6469
-17.2611
-19.456
-12.311
-14.0598
6.50944
0.7727
4.35469
7.60381
6.03074
3.01528
3.46153
-5.80124
2.30135
-5.37167
2.22446
-3.71935
2.2811
-2.47542
-9.8837
-7.15191
-6.54577
-8.33153
-9.24391
-4.41093
-5.88391
-4.88672
-4.7817
-3.30106
-8.00651
-5.74587
-5.27213
-3.85396
-1.76944
-2.66737
-0.545951
-4.08018
-1.83982
-3.03798
-0.747227
3.85596
0.161102
3.12526
-5.18473
2.55028
-2.66332
-5.46912
-3.7036
-5.0961
-2.95564
-4.77861
-3.57412
-0.385585
-3.05486
-0.433895
-7.96423
-8.71925
-7.18723
-6.48008
-4.30069
-3.59898
0.0627392
-6.09732
-4.60328
-5.05601
-12.7573
-6.05541
-4.30944
-4.90084
-8.58209
-6.21474
-8.9294
-5.99203
-8.06904
-6.00881
-8.55778
-7.56935
-11.7964
-10.7747
-8.98615
-7.98896
-11.6232
-10.7314
-4.35706
-8.4174
-6.16427
-6.73694
-4.71634
-8.59827
-6.40677
-0.104042
-3.70727
-1.48573
-3.59231
-0.557483
-3.81613
-1.54273
-177.199
437.762
439.411
-62.2327
-153.184
438.703
439.087
-98.1736
439.001
-162.509
-115.986
438.629
430.716
-41.5467
-31.6523
-88.4348
-40.9269
436.075
-28.5926