# Region type : patch inlet
#   Faces  : 2194
#   Area   : 3.377869e-02
#        Time	sum(phi)
          100	-3.352666e-01
