/*--------------------------------*- C++ -*----------------------------------*\
| =========                 |                                                 |
| \\      /  F ield         | OpenFOAM: The Open Source CFD Toolbox           |
|  \\    /   O peration     | Version:  4.0                                   |
|   \\  /    A nd           | Web:      www.OpenFOAM.org                      |
|    \\/     M anipulation  |                                                 |
\*---------------------------------------------------------------------------*/
FoamFile
{
    version     2.0;
    format      ascii;
    class       volScalarField;
    location    "10";
    object      p;
}
// * * * * * * * * * * * * * * * * * * * * * * * * * * * * * * * * * * * * * //

dimensions      [0 2 -2 0 0 0 0];

internalField   nonuniform List<scalar> 
146404
(
1.503e+27
7.10196e+26
-5.22421e+28
3.12032e+27
2.33017e+27
1.34736e+27
5.58401e+26
4.33639e+30
2.2357e+28
1.07336e+27
4.81877e+26
8.67172e+28
6.74629e+27
1.63722e+27
8.79641e+26
5.34075e+26
1.64589e+27
9.04722e+26
5.79138e+26
2.75615e+27
2.54318e+27
1.96398e+27
1.14301e+27
4.68321e+26
3.52174e+27
3.19058e+27
2.2978e+27
1.38394e+27
5.15821e+26
5.22906e+27
3.65738e+27
2.43775e+27
1.31535e+27
3.75355e+26
1.93015e+28
4.77834e+27
2.63989e+27
1.39427e+27
2.62051e+26
5.49036e+28
1.24467e+28
1.16529e+27
2.2824e+26
8.70916e+27
4.94468e+27
1.62979e+27
7.78451e+26
2.64094e+26
5.83351e+27
3.12531e+27
1.502e+27
8.73575e+26
4.3664e+26
3.57896e+27
2.45512e+27
1.47971e+27
9.41677e+26
4.17e+26
2.80245e+27
2.23196e+27
1.52872e+27
9.93616e+26
4.73047e+26
1.99792e+27
7.96717e+26
2.71283e+26
2.87959e+27
2.64782e+27
1.94094e+27
1.09504e+27
2.28919e+26
4.13184e+27
3.41973e+27
2.35989e+27
1.20864e+27
3.23308e+26
5.03387e+27
3.78145e+27
2.59964e+27
1.26054e+27
3.21508e+26
7.57965e+27
4.17278e+27
2.74909e+27
1.44308e+27
2.30224e+26
1.17163e+28
6.49143e+27
1.19579e+27
2.01567e+26
7.44856e+27
4.70159e+27
1.85811e+27
8.23775e+26
2.44627e+26
5.53562e+27
2.89582e+27
1.59458e+27
8.96582e+26
2.71129e+26
4.22261e+27
2.78629e+27
1.64657e+27
9.89702e+26
2.4096e+26
3.1191e+27
2.34375e+27
1.58262e+27
9.76304e+26
3.44452e+26
2.51039e+27
2.15305e+27
1.07437e+27
3.09979e+26
1.80814e+27
1.39817e+27
8.88719e+26
3.36145e+26
1.26529e+27
1.15181e+27
8.41597e+26
3.94488e+26
1.17661e+26
1.77497e+27
1.39296e+27
9.56919e+26
5.107e+26
1.118e+26
3.03686e+27
2.572e+27
2.0024e+27
9.82399e+26
1.47892e+26
4.65532e+27
3.7198e+27
2.47092e+27
1.19253e+27
2.34491e+26
6.20522e+27
4.51265e+27
2.77496e+27
1.02148e+27
2.91134e+26
8.53025e+27
4.85593e+27
2.92836e+27
1.22185e+27
2.31761e+26
1.11733e+28
6.22828e+27
1.13673e+27
2.10584e+26
9.89279e+27
5.62244e+27
2.13763e+27
9.88153e+26
2.18138e+26
7.62126e+27
4.73481e+27
2.01763e+27
1.08769e+27
2.39764e+26
5.84076e+27
3.64467e+27
1.88807e+27
1.14275e+27
2.26336e+26
3.98578e+27
2.9042e+27
1.76834e+27
1.13158e+27
1.88941e+26
2.91812e+27
2.37111e+27
1.70999e+27
8.92731e+26
1.64326e+26
2.42e+27
1.95303e+27
1.40756e+27
6.53927e+26
2.09051e+26
1.69286e+27
1.26594e+27
5.68995e+26
1.9254e+26
1.04994e+27
9.44613e+26
7.10219e+26
4.43798e+26
1.90212e+26
1.30801e+27
1.02856e+27
6.49491e+26
3.31677e+26
1.0144e+26
1.92229e+27
1.4103e+27
7.99177e+26
3.92029e+26
8.46561e+25
3.4648e+27
1.97025e+27
9.88531e+26
5.70672e+26
1.01087e+26
5.81209e+27
4.13854e+27
2.46129e+27
1.10449e+27
2.38116e+26
8.46662e+27
5.22748e+27
2.75169e+27
1.1649e+27
3.79779e+26
1.22118e+28
6.11619e+27
3.10761e+27
1.26263e+27
3.85947e+26
1.68026e+28
7.14543e+27
1.0857e+27
3.37746e+26
1.44474e+28
7.33377e+27
2.30235e+27
1.01912e+27
3.37789e+26
1.07456e+28
5.86099e+27
2.22003e+27
1.2101e+27
3.65706e+26
7.80021e+27
4.705e+27
2.29554e+27
1.39788e+27
2.31256e+26
5.53301e+27
3.572e+27
2.48786e+27
1.13228e+27
1.92509e+26
3.48442e+27
2.66957e+27
1.64379e+27
6.84994e+26
1.69388e+26
2.73844e+27
1.91415e+27
1.15022e+27
4.45302e+26
1.36392e+26
2.0255e+27
1.58959e+27
1.02164e+27
4.27116e+26
1.75117e+26
8.76961e+26
8.59091e+26
6.75738e+26
4.55087e+26
2.19246e+26
1.02597e+27
9.10752e+26
6.80442e+26
3.33729e+26
1.02918e+26
1.20655e+27
9.17497e+26
5.31259e+26
2.83314e+26
9.10898e+25
2.05406e+27
1.30515e+27
5.1125e+26
2.46645e+26
8.22406e+25
3.90692e+27
2.08443e+27
7.15034e+26
3.2792e+26
1.15853e+26
6.85331e+27
3.31904e+27
1.02253e+27
6.58223e+26
1.58564e+26
1.27814e+28
1.68542e+28
1.18679e+27
3.5722e+26
2.33086e+28
2.82203e+28
3.4311e+28
2.25042e+28
3.15244e+28
6.85495e+28
8.0846e+28
2.12659e+28
6.78691e+27
3.64911e+28
1.63948e+29
7.5193e+29
-1.11829e+28
2.474e+28
4.34365e+29
1.25417e+27
4.49952e+26
1.25298e+28
1.35329e+27
4.00339e+26
7.35589e+27
5.20593e+27
3.01044e+27
9.15433e+26
2.42469e+26
4.27223e+27
3.20852e+27
1.83909e+27
7.96246e+26
1.81557e+26
2.9059e+27
2.3527e+27
1.49066e+27
6.69729e+26
1.40188e+26
2.17972e+27
1.63309e+27
1.0564e+27
5.35048e+26
1.91044e+26
1.52754e+27
1.29243e+27
9.18872e+26
5.26213e+26
2.41201e+26
1.20302e+27
8.86446e+26
6.82377e+26
4.44645e+26
1.68818e+26
1.05031e+27
9.37401e+26
6.74489e+26
3.66975e+26
9.48822e+25
1.13404e+27
9.33116e+26
5.6286e+26
3.23533e+26
9.03842e+25
1.95506e+27
1.05022e+27
4.89145e+26
2.78681e+26
1.26294e+26
4.24229e+27
1.66595e+27
5.87582e+26
2.71703e+26
1.21047e+26
1.14094e+28
1.04838e+28
1.00853e+28
1.20362e+26
2.11812e+28
1.91201e+28
1.66261e+28
1.38887e+28
3.54506e+27
3.2608e+28
3.31699e+28
2.89956e+28
2.02711e+28
4.50364e+27
4.95769e+28
6.63272e+28
6.37821e+28
2.25756e+28
5.06771e+27
7.72304e+28
1.81101e+29
3.7427e+29
-4.73745e+27
1.42515e+27
5.72072e+28
4.25428e+29
5.76771e+30
-5.16643e+28
-4.26161e+27
2.62806e+28
8.16565e+28
1.0613e+29
-5.54663e+28
5.33572e+26
1.01026e+28
6.24394e+27
2.94066e+27
1.04284e+27
2.8164e+26
5.70829e+27
3.93081e+27
2.14129e+27
1.03333e+27
1.12369e+26
3.39996e+27
2.58959e+27
1.60272e+27
8.04737e+26
1.13312e+26
2.16797e+27
1.80556e+27
1.15792e+27
6.70563e+26
1.09997e+26
1.45809e+27
1.23355e+27
8.97466e+26
5.63383e+26
1.65656e+26
3.43602e+27
1.097e+27
7.88219e+26
4.69144e+26
1.21074e+26
1.1531e+27
9.91385e+26
7.94109e+26
4.51125e+26
1.14101e+26
1.15917e+27
3.81963e+26
1.14544e+26
1.81526e+27
1.03313e+27
5.32414e+26
3.15949e+26
1.59107e+26
6.07478e+27
4.90771e+26
2.5973e+26
1.4679e+26
1.30087e+28
1.04172e+28
8.21859e+27
6.39699e+27
1.15654e+27
1.92069e+28
1.73022e+28
1.36318e+28
9.64803e+27
1.64179e+27
2.67269e+28
2.83533e+28
2.3594e+28
1.5103e+28
2.47739e+27
3.73969e+28
4.44441e+28
3.82113e+28
1.99123e+28
3.12332e+27
5.31508e+28
7.57788e+28
7.37864e+28
1.76655e+28
5.49856e+26
4.53115e+28
8.98015e+28
2.50267e+29
1.9513e+28
-2.74308e+27
3.15834e+28
4.35044e+28
6.21021e+28
6.04789e+27
-3.56845e+27
1.75621e+28
2.51159e+28
3.34907e+28
8.51318e+26
1.54849e+26
6.60166e+27
4.12692e+27
2.05397e+27
9.59732e+26
5.92636e+25
3.72331e+27
2.98124e+27
8.57658e+26
7.3219e+25
2.18814e+27
1.58731e+27
9.52771e+26
4.60069e+26
8.29923e+25
1.31592e+27
1.02546e+27
6.64429e+26
3.70895e+26
1.27002e+26
7.71936e+26
5.48569e+26
3.37719e+26
1.81193e+26
1.12007e+27
7.66017e+26
5.23124e+26
3.04082e+26
1.28203e+27
1.07877e+27
8.35241e+26
5.26908e+26
1.72358e+26
1.17306e+27
1.06215e+27
8.6726e+26
5.47758e+26
1.96936e+26
1.21821e+27
1.10386e+27
9.20477e+26
6.29504e+26
2.72813e+26
1.79861e+27
1.20001e+27
9.31647e+26
6.83276e+26
4.17537e+26
5.94366e+27
5.12227e+27
3.71377e+27
2.71768e+27
3.15564e+26
9.53554e+27
8.11797e+27
5.67383e+27
3.73857e+27
5.34537e+26
1.50122e+28
1.31063e+28
9.61598e+27
6.4241e+27
7.57179e+26
2.01223e+28
2.0623e+28
1.60479e+28
7.88738e+27
1.40475e+27
2.32608e+28
2.46357e+28
2.1319e+28
9.25873e+27
1.64681e+27
3.83108e+28
4.14138e+28
3.23367e+28
1.11078e+28
1.55577e+27
3.6035e+28
4.64144e+28
4.61039e+28
1.36129e+28
-9.6861e+26
2.91507e+28
3.26184e+28
3.05172e+28
6.4519e+27
-1.19909e+27
1.66505e+28
2.01071e+28
1.56839e+28
3.55181e+27
-1.08922e+27
6.34067e+27
3.29295e+27
1.17354e+27
3.84731e+26
5.58683e+25
3.07851e+27
2.2435e+27
1.2217e+27
3.52517e+26
7.28294e+25
2.01106e+27
1.45966e+27
9.01067e+26
3.63894e+26
8.98298e+25
1.42724e+27
1.13912e+27
7.2355e+26
3.5569e+26
1.08413e+26
8.30171e+26
7.39923e+26
5.09258e+26
2.81833e+26
1.37132e+26
1.09724e+27
9.66421e+26
7.80699e+26
5.85766e+26
3.30888e+26
1.17247e+27
1.0505e+27
8.80329e+26
6.5296e+26
2.56297e+26
1.17992e+27
1.08824e+27
9.68275e+26
7.66571e+26
3.75115e+26
1.29555e+27
1.17013e+27
1.09918e+27
1.06159e+27
8.11437e+26
1.99802e+27
1.34534e+27
1.19726e+27
1.45747e+27
1.88179e+27
4.12814e+27
3.35977e+27
2.2954e+27
1.47702e+27
5.97906e+27
4.84779e+27
3.09753e+27
1.77634e+27
3.01465e+26
8.78471e+27
6.52015e+27
4.3638e+27
3.0375e+27
3.68894e+26
1.2351e+28
1.08633e+28
6.70873e+27
3.46274e+27
8.26214e+26
1.48954e+28
1.48641e+28
1.06581e+28
4.73254e+27
1.15096e+27
2.12025e+28
2.10162e+28
1.64099e+28
7.36474e+27
1.34622e+27
2.56736e+28
2.73309e+28
2.35696e+28
8.53222e+27
-1.14185e+26
2.30423e+28
2.3173e+28
1.86351e+28
5.44441e+27
-3.88939e+26
1.4459e+28
1.50578e+28
1.14125e+28
3.70212e+27
-3.86557e+26
6.4744e+27
3.4116e+27
1.04638e+27
3.51452e+26
-3.52952e+25
2.92161e+27
1.84435e+27
1.08266e+27
4.02083e+26
4.63293e+25
2.19336e+27
1.52414e+27
9.4014e+26
3.5871e+26
8.54829e+25
1.63402e+27
1.21518e+27
6.9012e+26
2.615e+26
1.00099e+26
7.73843e+26
7.15434e+26
4.27151e+26
1.61909e+26
9.9896e+25
9.09503e+26
7.88397e+26
6.55432e+26
4.15361e+26
1.12218e+27
1.01812e+27
8.8031e+26
7.53522e+26
3.52248e+26
1.20507e+27
1.09845e+27
1.00161e+27
9.65341e+26
6.83891e+26
1.41437e+27
1.20907e+27
1.19388e+27
1.78326e+27
1.4505e+27
2.00662e+27
1.44683e+27
1.53491e+27
3.11401e+27
4.93964e+27
2.93088e+27
2.37731e+27
1.47524e+27
8.20457e+26
1.02006e+28
3.78013e+27
2.77697e+27
1.49419e+27
8.24396e+26
2.33419e+26
4.59454e+27
3.45755e+27
1.83769e+27
1.11037e+27
2.65184e+26
6.94708e+27
5.03052e+27
3.20722e+27
1.93141e+27
4.48839e+26
9.55236e+27
7.46378e+27
5.61423e+27
3.15007e+27
7.80869e+26
1.61439e+28
1.44262e+28
8.65479e+27
4.29474e+27
8.49175e+26
1.88778e+28
1.86717e+28
1.43295e+28
5.48472e+27
2.33901e+26
1.75682e+28
1.63601e+28
1.22315e+28
3.60764e+27
7.16899e+25
1.19227e+28
1.23178e+28
9.04104e+27
2.94965e+27
7.66816e+24
6.43801e+27
2.9134e+27
1.00348e+27
2.02794e+26
-3.08771e+26
4.00651e+27
1.90084e+27
1.06839e+27
3.97275e+26
-8.08915e+25
3.574e+27
1.75835e+27
9.46572e+26
5.13796e+26
9.4432e+25
2.82782e+27
1.57858e+27
5.70898e+26
2.77583e+26
1.24108e+26
8.97889e+26
7.32958e+26
3.14475e+26
1.19639e+26
9.04704e+25
1.12028e+27
9.83807e+26
8.47915e+26
8.39255e+26
5.66497e+26
1.30629e+27
1.10821e+27
9.51916e+26
1.19114e+27
9.28363e+26
1.63731e+27
2.18622e+27
1.86148e+27
1.96571e+27
2.04893e+27
2.63831e+27
4.27944e+27
6.66511e+27
2.29462e+27
2.56777e+27
2.09143e+27
3.52186e+28
2.97864e+27
1.85963e+27
9.5586e+26
4.76992e+26
2.4093e+26
3.57243e+27
2.46671e+27
1.1692e+27
5.38898e+26
2.40213e+26
4.66894e+27
3.47184e+27
1.81663e+27
8.99654e+26
2.95656e+26
7.06713e+27
5.04e+27
3.03702e+27
1.5865e+27
4.00749e+26
1.13866e+28
9.35943e+27
5.57681e+27
2.37811e+27
3.8541e+26
1.58333e+28
1.37731e+28
9.17618e+27
3.06892e+27
3.14349e+26
1.45173e+28
1.2787e+28
9.28826e+27
2.97913e+27
2.30486e+26
9.12955e+27
1.07355e+28
8.24207e+27
-4.79054e+27
-5.9468e+27
6.10467e+27
2.87085e+27
-9.31429e+26
-2.83813e+27
-1.50794e+27
8.02581e+27
4.74732e+27
-5.10759e+26
-2.33054e+26
1.37853e+28
4.05017e+27
6.755e+26
8.68368e+26
4.42182e+26
1.1809e+28
5.11113e+27
4.18997e+26
6.90866e+26
3.75181e+26
1.6249e+27
2.11767e+26
1.20509e+26
5.30684e+25
1.21204e+27
1.23009e+27
1.62959e+27
1.46998e+27
8.23087e+26
1.44042e+27
1.69698e+27
2.20622e+27
2.19645e+27
1.39728e+27
1.99512e+27
2.37339e+27
2.96148e+27
3.41854e+27
2.65178e+27
2.02845e+27
2.25945e+27
2.91205e+27
5.17579e+27
1.247e+28
2.11723e+27
2.09388e+27
1.92083e+27
-1.86143e+28
1.90448e+29
2.41486e+27
1.65287e+27
8.14119e+26
1.64395e+30
3.14095e+27
1.93427e+27
1.02782e+27
5.46882e+26
2.41405e+26
3.98517e+27
2.90791e+27
1.54929e+27
7.62513e+26
2.75873e+26
5.28767e+27
4.16382e+27
2.37985e+27
1.09055e+27
3.40083e+26
8.19751e+27
6.89495e+27
4.10754e+27
1.51214e+27
3.78227e+26
1.14615e+28
9.48931e+27
6.0295e+27
1.91222e+27
3.56872e+26
1.08529e+28
9.48147e+27
6.89108e+27
2.38607e+27
-5.43649e+29
4.40909e+27
2.87262e+26
-9.72518e+27
-4.25408e+28
-4.29749e+28
9.15087e+27
8.60153e+27
3.59629e+27
-7.22535e+27
-7.63028e+27
2.4879e+28
2.53441e+28
2.37496e+28
5.62399e+27
-8.0573e+26
3.90815e+28
1.07181e+29
1.07704e+29
2.4792e+28
1.89743e+27
3.13756e+28
3.575e+29
4.16376e+29
3.42139e+28
1.51233e+27
1.25048e+27
1.33613e+27
1.78264e+27
1.81913e+27
1.2148e+27
1.5614e+27
1.80984e+27
2.25861e+27
2.33574e+27
1.32927e+27
2.02136e+27
2.34259e+27
2.78924e+27
3.10929e+27
2.05218e+27
2.02977e+27
2.26845e+27
2.80631e+27
4.2196e+27
5.98062e+27
2.00341e+27
2.10832e+27
1.99801e+27
4.86325e+27
2.42101e+28
1.78394e+27
1.98712e+27
1.87376e+27
7.86087e+27
8.7946e+28
2.00658e+27
1.68008e+27
8.13492e+27
6.73487e+28
4.58476e+29
2.21272e+27
2.35446e+27
1.39695e+27
7.78521e+26
1.72012e+27
2.98311e+27
1.912e+27
9.79439e+26
3.54565e+26
2.19626e+27
4.49485e+27
2.80077e+27
1.26859e+27
-8.27746e+26
6.14585e+27
-7.47251e+30
-3.51886e+31
-3.08991e+27
-9.75575e+29
-9.09648e+29
5.48116e+26
-2.52744e+27
-1.60402e+28
-8.38291e+28
-1.20884e+29
7.71458e+27
6.44941e+27
5.43289e+26
-1.43576e+28
-1.85953e+28
1.83012e+28
2.11783e+28
1.58005e+28
2.38702e+27
-2.84821e+27
3.12144e+28
5.31543e+28
4.65552e+28
1.6682e+28
6.06084e+26
3.22041e+28
1.0787e+29
1.21244e+29
2.33417e+28
1.22428e+27
1.62275e+27
1.78891e+27
2.28176e+27
2.44484e+27
1.57419e+27
1.98989e+27
2.16828e+27
2.55682e+27
2.86435e+27
1.6517e+27
1.99057e+27
2.23712e+27
2.70506e+27
3.59782e+27
3.00831e+27
1.7339e+27
2.13082e+27
2.46982e+27
3.91314e+27
5.47911e+27
1.25779e+27
1.77499e+27
5.08912e+27
1.6673e+28
1.5656e+27
-2.69932e+25
8.88865e+26
9.61632e+27
5.77106e+28
-1.25812e+29
-2.21551e+27
-1.57747e+27
5.66439e+26
-1.84967e+29
-5.29774e+30
-8.96795e+27
-4.06948e+27
-2.52154e+30
-3.78015e+32
-2.23066e+28
-8.02408e+28
-8.60809e+29
-1.80947e+31
-6.88087e+31
-2.73596e+28
-7.72506e+28
-5.43133e+29
-5.50203e+30
-1.12311e+31
-2.26074e+28
-5.37947e+28
-2.4366e+29
-1.04153e+30
-1.3994e+30
-8.60092e+27
-6.99729e+27
-1.30251e+28
-1.26635e+29
-1.76639e+29
1.13255e+27
-2.16844e+26
-5.21446e+27
-2.24661e+28
-2.96271e+28
6.97519e+27
6.32931e+27
3.48179e+27
-3.7683e+27
-8.8775e+27
1.09106e+28
1.60755e+28
1.50931e+28
4.2232e+27
-2.11409e+27
1.94678e+27
2.10641e+27
2.41519e+27
2.81516e+27
1.96731e+27
1.92305e+27
2.13189e+27
2.48289e+27
3.18029e+27
2.17605e+27
1.60827e+27
1.90596e+27
2.02149e+27
2.77613e+27
-2.16174e+27
4.56346e+26
7.3847e+26
-1.52113e+27
-1.66244e+28
-1.56506e+28
-1.93886e+27
-2.97772e+27
-1.46092e+28
-6.79563e+28
-1.25401e+29
-4.327e+27
-3.67472e+27
-1.1845e+28
-1.89549e+29
-8.8323e+29
-1.15427e+28
-5.66056e+27
-7.84754e+29
-7.63824e+30
-3.49434e+28
-7.34195e+28
-4.35415e+29
-3.16971e+30
-1.07606e+31
-3.60272e+28
-8.51617e+28
-3.2735e+29
-1.44908e+30
-2.39629e+30
-3.12336e+28
-5.45295e+28
-2.06157e+29
-5.98951e+29
-5.28955e+29
-1.94699e+28
-4.06123e+28
-1.22692e+29
-2.03993e+29
-1.22669e+29
-7.39775e+27
-5.8946e+27
-8.17343e+27
-2.92248e+28
-4.74827e+28
-2.07236e+27
-3.02307e+27
-5.08027e+27
-1.03405e+28
-1.4364e+28
-1.06642e+27
-2.62887e+27
-5.6584e+27
-7.06325e+27
1.90241e+27
2.70987e+27
2.71752e+27
1.56492e+27
1.81035e+27
1.79722e+27
9.88994e+26
-6.45594e+26
4.44755e+26
6.86784e+26
-2.33047e+26
-8.40331e+27
-1.18213e+28
-3.21058e+27
-4.54155e+27
-1.54601e+28
-4.4727e+28
-5.39355e+28
-5.99633e+27
-5.86134e+27
-1.64884e+28
-8.81679e+28
-2.1969e+29
-1.48095e+28
-7.35432e+27
-2.59558e+29
-1.12983e+30
-2.78526e+28
-5.15109e+28
-2.47121e+29
-1.01696e+30
-1.88376e+30
-2.8077e+28
-5.00771e+28
-1.8713e+29
-5.35863e+29
-6.90832e+29
-2.71598e+28
-4.16381e+28
-1.44547e+29
-3.48096e+29
-4.29002e+29
-2.3197e+28
-4.01872e+28
-1.06594e+29
-1.67304e+29
-1.61018e+29
-1.34993e+28
-2.59602e+28
-7.18951e+28
-9.00082e+28
-7.2106e+28
-7.82943e+27
-1.49255e+28
-2.49431e+28
1.5503e+27
1.8235e+27
1.75056e+27
1.34817e+27
7.68023e+26
4.23479e+26
6.33866e+26
-9.75107e+25
-4.04443e+27
-8.46355e+27
-3.43882e+27
-3.51178e+27
-9.90356e+27
-2.63018e+28
-3.80881e+28
-7.5034e+27
-6.88466e+27
-1.72766e+28
-5.80091e+28
-1.00225e+29
-1.55632e+28
-8.05219e+27
-1.68755e+29
-3.6334e+29
-2.33211e+28
-4.01687e+28
-1.51593e+29
-4.62828e+29
-6.33525e+29
-2.30133e+28
-3.14487e+28
-1.19851e+29
-3.4466e+29
-4.74245e+29
-2.29234e+28
-2.9703e+28
-1.05447e+29
-2.90935e+29
-3.97719e+29
-2.23838e+28
-3.08367e+28
-9.79666e+28
-1.79807e+29
-2.19005e+29
-7.63214e+27
-6.16207e+27
-1.29352e+28
-3.90668e+28
-6.28643e+28
-1.34022e+28
-9.81786e+27
-9.37613e+28
-1.80149e+29
-2.06772e+28
-3.21343e+28
-9.5017e+28
-2.46266e+29
-3.54202e+29
-2.46801e+29
-3.93451e+29
2.45131e+27
2.32261e+27
1.54229e+27
1.388e+27
7.19519e+26
5.97891e+26
5.83811e+25
7.82559e+30
4.68254e+28
2.48071e+27
1.73823e+28
2.29944e+27
2.33708e+27
1.52974e+27
2.18301e+27
1.31721e+27
1.37355e+27
6.90164e+26
1.18968e+27
5.988e+26
5.83307e+26
6.38242e+25
5.17615e+26
5.6508e+25
4.60959e+30
4.86975e+28
1.67978e+28
2.50686e+28
9.68865e+27
1.92986e+27
1.68786e+27
9.67553e+26
1.10669e+27
5.9462e+26
8.98107e+26
6.09533e+26
5.14476e+26
5.6392e+25
5.41137e+26
6.01512e+25
1.2234e+28
7.50197e+27
1.92009e+27
1.68432e+27
9.62838e+26
8.93372e+26
6.1905e+26
5.54262e+26
5.53627e+25
2.5288e+27
2.48337e+27
2.05513e+27
1.93812e+27
1.22226e+27
1.10777e+27
5.68154e+26
4.76943e+26
4.52776e+25
2.75846e+27
2.58805e+27
3.2115e+27
3.09967e+27
2.53387e+27
2.09404e+27
2.96783e+27
2.43674e+27
1.98337e+27
1.24848e+27
2.16833e+27
1.55813e+27
1.14044e+27
5.77594e+26
1.31979e+27
8.21185e+26
4.96806e+26
4.478e+25
5.71372e+26
9.76973e+25
3.41103e+27
3.28409e+27
4.12449e+27
3.92733e+27
3.1253e+27
2.56445e+27
3.53477e+27
2.86327e+27
2.26574e+27
1.63612e+27
2.44166e+27
1.83292e+27
1.39377e+27
8.72798e+26
1.51964e+27
9.46538e+26
5.94102e+26
1.03188e+26
6.41893e+26
1.15809e+26
-1.59881e+28
2.48955e+27
5.02252e+27
4.68419e+27
1.07754e+28
6.74417e+27
3.19584e+27
2.48072e+27
3.71877e+27
3.13775e+27
4.27647e+27
3.27e+27
1.64711e+27
2.32605e+27
1.63261e+27
2.41069e+27
1.98972e+27
2.48308e+27
2.00042e+27
8.1703e+26
1.38601e+27
7.8291e+26
1.42213e+27
1.04663e+27
1.40746e+27
1.00705e+27
5.8603e+26
9.13114e+25
5.55583e+26
2.08693e+26
5.28145e+26
2.03671e+26
1.81624e+27
1.21462e+31
5.02403e+28
4.68085e+28
1.47646e+28
3.37191e+29
2.54804e+28
2.59507e+27
1.83185e+28
2.31555e+27
5.72101e+27
3.37009e+27
1.24997e+28
2.6194e+27
1.61435e+27
2.19368e+27
1.31872e+27
2.52179e+27
1.9658e+27
2.50254e+27
1.48065e+27
7.2379e+26
1.13373e+27
6.36906e+26
1.35775e+27
8.65457e+26
1.21221e+27
7.21406e+26
9.08259e+25
4.95088e+26
8.71977e+25
4.49896e+26
1.77405e+26
4.00248e+26
1.60614e+26
4.99943e+28
1.25343e+29
2.26981e+28
2.29577e+29
2.84858e+28
7.14387e+28
2.74362e+28
9.91751e+27
2.09248e+27
1.56544e+28
9.80741e+27
2.25182e+27
1.65645e+27
9.93596e+26
1.41873e+27
1.74657e+27
1.04189e+27
6.22896e+26
8.83299e+26
6.3165e+26
1.16939e+27
6.48703e+26
8.54508e+26
6.67585e+26
7.66e+25
5.0685e+26
9.38232e+25
3.68905e+26
1.52709e+26
3.85999e+26
1.53839e+26
1.22888e+28
4.86971e+27
2.57754e+28
1.30247e+28
1.2736e+28
8.17473e+27
2.07208e+27
4.09044e+27
1.89116e+27
5.71005e+27
2.613e+27
4.15187e+27
2.37948e+27
9.89638e+26
1.65203e+27
9.62384e+26
1.57414e+27
1.10726e+27
1.53206e+27
1.09547e+27
6.4496e+26
8.99196e+26
6.45926e+26
8.4477e+26
6.9227e+26
8.37535e+26
7.03572e+26
8.92955e+25
5.80738e+26
5.60509e+25
4.19204e+26
1.64872e+26
4.52628e+26
1.71483e+26
8.16817e+27
4.93624e+27
4.15982e+27
3.14698e+27
1.85454e+27
3.09217e+27
2.12503e+27
2.63627e+27
1.83022e+27
9.69829e+26
1.46708e+27
1.0906e+27
1.51073e+27
1.08041e+27
6.46607e+26
8.62699e+26
7.04094e+26
9.41403e+26
6.68246e+26
5.7723e+25
4.73931e+26
1.70754e+26
5.13761e+26
9.65045e+25
3.60182e+27
2.93075e+27
2.9386e+27
2.45589e+27
2.54712e+27
1.77078e+27
2.34269e+27
1.71045e+27
1.51691e+27
1.10288e+27
1.50472e+27
1.14035e+27
9.66677e+26
6.53065e+26
9.8223e+26
6.44877e+26
5.01196e+26
9.80362e+25
4.83604e+26
1.06088e+26
2.83165e+27
2.37967e+27
2.27953e+27
1.65973e+27
1.5423e+27
1.1005e+27
1.00817e+27
5.99795e+26
4.98648e+26
6.6731e+25
1.79238e+27
1.64283e+27
7.8979e+26
4.68943e+26
3.47814e+26
5.36446e+25
2.6633e+27
2.51356e+27
2.04349e+27
1.95731e+27
2.52649e+27
2.4703e+27
2.46586e+27
2.06304e+27
2.00572e+27
2.32639e+27
2.07445e+27
1.87885e+27
1.27163e+27
9.82687e+26
1.76452e+27
1.40106e+27
1.07123e+27
5.95347e+26
8.47171e+26
5.01839e+26
9.72033e+26
6.26189e+26
4.44803e+26
6.2587e+25
3.63235e+26
6.0345e+25
3.26571e+26
1.08013e+26
2.62537e+27
3.16671e+27
3.10257e+27
2.85897e+27
2.79228e+27
3.22077e+27
3.18007e+27
2.16758e+27
2.88383e+27
2.53152e+27
2.60451e+27
2.318e+27
2.95596e+27
2.61792e+27
1.35664e+27
2.10498e+27
1.68151e+27
1.93143e+27
1.55052e+27
2.12227e+27
1.71962e+27
6.34775e+26
1.26568e+27
9.18905e+26
1.1429e+27
7.55954e+26
1.30007e+27
8.93387e+26
6.73075e+25
4.96896e+26
1.55894e+26
3.65992e+26
1.33574e+26
4.25709e+26
1.5426e+26
3.35853e+27
1.0924e+28
2.64727e+27
4.27964e+27
3.30764e+27
6.51452e+27
2.76783e+27
2.15779e+27
2.53172e+27
1.49764e+27
2.70022e+27
2.24319e+27
2.68227e+27
1.58385e+27
8.04354e+27
2.28685e+27
7.00366e+27
6.34435e+27
2.58679e+27
1.4248e+27
1.78113e+27
1.07774e+27
1.51419e+27
1.93714e+27
1.13816e+27
3.11582e+27
2.97862e+27
2.53318e+27
3.79041e+27
3.34198e+27
3.22035e+27
2.85864e+27
2.42278e+27
2.8497e+27
2.61201e+27
2.6151e+27
2.31488e+27
1.7059e+27
2.23654e+27
1.81233e+27
2.11991e+27
1.62845e+27
1.1392e+27
1.49118e+27
1.2237e+27
1.4879e+27
1.1529e+27
6.31775e+26
9.7043e+26
6.77276e+26
1.03249e+27
6.47448e+26
9.60352e+25
3.82442e+26
1.38221e+26
4.15642e+26
7.89063e+25
2.48871e+27
2.21138e+27
2.11634e+27
1.58509e+27
1.78078e+27
1.48487e+27
1.49624e+27
1.14009e+27
1.39912e+27
1.01349e+27
1.08072e+27
5.43557e+26
9.13628e+26
4.21103e+26
4.01932e+26
7.31314e+25
3.47492e+26
4.24355e+25
1.21315e+27
1.18777e+27
1.13594e+27
9.63347e+26
8.57549e+26
6.49646e+26
5.39925e+26
3.32292e+26
2.33888e+26
5.02054e+25
1.71871e+27
1.48646e+27
1.25887e+27
1.23841e+27
1.48297e+27
1.38961e+27
1.35314e+27
1.19026e+27
1.05764e+27
1.31062e+27
1.07037e+27
7.16435e+26
8.77979e+26
7.04877e+26
9.40618e+26
6.95826e+26
7.10978e+26
4.42602e+26
5.21612e+26
3.71599e+26
5.44771e+26
3.78824e+26
3.19017e+26
4.94565e+25
1.96951e+26
7.9597e+25
1.95889e+26
7.91525e+25
2.39239e+27
2.07011e+27
1.38529e+27
1.09669e+27
2.39985e+27
2.09541e+27
1.85557e+27
1.32007e+27
9.68698e+26
7.01058e+26
1.95887e+27
1.06763e+27
3.34106e+27
6.15156e+27
2.80176e+27
4.35162e+27
3.51228e+27
5.89193e+27
3.18673e+27
2.31688e+27
2.7139e+27
1.58364e+27
2.81377e+27
2.24117e+27
3.01187e+27
1.52156e+27
5.89758e+27
2.63069e+27
6.14319e+27
6.01815e+27
2.96944e+27
1.50049e+27
2.01819e+27
1.17553e+27
1.43525e+27
2.21893e+27
1.23324e+27
1.80905e+27
2.19839e+27
1.60534e+27
2.71131e+27
1.92548e+27
2.43082e+27
1.92923e+27
1.20351e+27
1.51834e+27
1.13034e+27
1.68917e+27
1.25168e+27
1.79557e+27
1.13968e+27
2.25004e+27
2.2526e+27
1.87579e+27
2.67118e+27
2.50391e+27
2.46086e+27
2.27747e+27
1.81133e+27
1.5343e+27
2.26774e+27
1.89545e+27
2.00667e+27
1.77841e+27
1.1355e+27
1.40772e+27
1.03628e+27
1.68967e+27
1.18964e+27
1.49777e+27
1.16433e+27
5.43754e+26
8.88361e+26
4.40724e+26
9.64399e+26
5.20342e+26
8.21799e+26
4.90149e+26
1.07259e+26
3.25848e+26
6.66264e+25
2.6196e+26
1.05898e+26
2.54669e+26
1.09942e+26
1.87707e+27
2.40203e+27
2.14415e+27
1.8398e+27
1.49871e+27
1.9564e+27
1.61237e+27
1.75109e+27
1.4007e+27
9.9473e+26
1.43736e+27
9.90593e+26
1.288e+27
7.29194e+26
4.09732e+26
7.78498e+26
3.81338e+26
6.10151e+26
2.54343e+26
4.35144e+25
2.67985e+26
6.77429e+25
2.09769e+26
3.65699e+25
1.03163e+27
9.93559e+26
9.46626e+26
7.93264e+26
7.31753e+26
5.54687e+26
4.85787e+26
2.97448e+26
2.27414e+26
3.53507e+25
1.19037e+27
1.16273e+27
1.05508e+27
1.01967e+27
1.14254e+27
1.12027e+27
1.07467e+27
9.48382e+26
9.73118e+26
8.20097e+26
1.03579e+27
9.12905e+26
8.07438e+26
6.60422e+26
7.49706e+26
5.692e+26
7.74446e+26
6.41756e+26
4.70736e+26
3.46065e+26
4.86172e+26
3.04454e+26
4.55652e+26
3.33817e+26
1.87075e+26
7.54092e+25
2.23919e+26
3.85974e+25
1.76693e+26
7.05584e+25
1.10217e+27
2.4446e+27
2.10581e+27
1.40248e+27
1.14102e+27
1.72245e+27
1.19151e+27
6.75523e+26
1.9845e+27
1.04508e+27
8.91217e+26
6.74067e+26
9.92484e+26
6.8368e+26
2.14953e+27
3.24102e+27
2.72952e+27
1.8912e+27
1.14843e+27
3.62903e+27
2.71712e+27
1.08681e+27
2.33495e+27
1.52323e+27
1.02851e+27
6.89718e+26
2.28128e+27
1.28824e+27
3.74478e+27
5.9776e+27
3.24537e+27
5.37944e+27
4.01088e+27
6.6296e+27
3.63364e+27
2.12682e+27
3.04712e+27
1.52338e+27
2.99896e+27
2.05626e+27
3.34082e+27
1.44828e+27
6.34185e+27
3.0859e+27
7.17276e+27
7.14112e+27
3.18014e+27
1.43403e+27
2.30316e+27
1.26436e+27
1.37545e+27
2.34711e+27
1.26036e+27
2.55831e+27
3.09061e+27
2.10104e+27
4.47991e+27
2.70848e+27
3.66522e+27
1.50738e+27
1.8088e+27
1.32771e+27
2.23487e+27
1.57279e+27
1.29952e+27
1.93302e+27
2.52273e+27
2.06613e+27
3.50131e+27
2.65679e+27
3.04621e+27
2.45558e+27
1.24994e+27
1.85026e+27
1.23201e+27
2.43948e+27
1.29785e+27
2.08316e+27
1.36728e+27
2.26227e+27
2.10005e+27
1.86326e+27
2.58241e+27
2.38332e+27
2.20793e+27
2.05142e+27
1.70639e+27
1.72907e+27
1.42962e+27
2.0502e+27
1.77895e+27
1.79086e+27
1.60922e+27
1.04493e+27
1.26786e+27
7.6061e+26
1.39312e+27
1.07444e+27
1.26131e+27
9.42381e+26
4.01005e+26
5.70336e+26
2.54008e+26
6.39496e+26
4.08967e+26
5.16854e+26
2.98554e+26
9.42279e+25
1.91063e+26
5.07892e+25
1.84153e+26
1.03032e+26
1.6833e+26
8.59309e+25
1.78437e+27
2.01827e+27
1.77934e+27
1.36855e+27
1.63359e+27
1.3613e+27
7.02301e+26
1.16212e+27
7.06167e+26
2.29655e+26
4.75428e+26
2.26934e+26
3.47335e+25
1.79443e+26
5.72316e+25
8.4914e+26
7.0738e+26
6.78577e+26
4.96297e+26
4.66124e+26
2.69889e+26
2.41874e+26
2.08892e+25
1.02242e+27
9.79253e+26
8.97123e+26
8.75822e+26
9.8744e+26
9.60987e+26
9.33051e+26
7.82762e+26
8.56451e+26
7.10093e+26
8.88821e+26
7.88952e+26
7.15652e+26
5.47708e+26
6.81612e+26
4.9798e+26
6.853e+26
5.57592e+26
4.71946e+26
2.99776e+26
4.66549e+26
2.71566e+26
4.2856e+26
3.06425e+26
2.21377e+26
3.92894e+25
2.42195e+26
2.17887e+25
1.79934e+26
6.65983e+25
1.19716e+27
3.76596e+27
2.6749e+27
2.20212e+27
1.15469e+27
3.14685e+27
1.18498e+27
6.66943e+26
2.40093e+27
1.26145e+27
8.65974e+26
5.26052e+26
1.01419e+27
5.91407e+26
2.9381e+27
4.68668e+27
3.5018e+27
3.59574e+27
5.37085e+27
3.16243e+27
1.37975e+27
2.64879e+27
1.81432e+27
6.58233e+26
2.84339e+27
1.48418e+27
3.63881e+27
5.96769e+27
3.64299e+27
3.10547e+27
2.47205e+28
3.24271e+28
1.93115e+27
3.02567e+27
1.7447e+27
2.90743e+27
1.5503e+27
3.22658e+28
7.94721e+26
1.18693e+27
7.9633e+26
1.18287e+27
5.62411e+26
5.30926e+26
1.56473e+26
4.12123e+26
1.81636e+26
4.00454e+26
1.20909e+26
4.35189e+26
1.00663e+26
7.94972e+27
1.60574e+28
9.3864e+27
1.89118e+28
2.51016e+28
2.38131e+28
3.25544e+28
3.72737e+27
6.63266e+27
3.67091e+27
2.79421e+28
3.55074e+28
4.14145e+28
6.78275e+28
1.75844e+27
3.4028e+27
1.42497e+27
3.47508e+28
2.3364e+28
6.41564e+28
2.63534e+28
6.84586e+26
1.08607e+27
5.15626e+26
2.2777e+28
5.1492e+26
2.26936e+28
1.82627e+26
3.68752e+26
1.58899e+26
4.47377e+26
9.13086e+25
7.63706e+25
9.13258e+27
1.57594e+28
1.01921e+28
2.56324e+28
3.63024e+28
2.55334e+28
5.88351e+28
7.5755e+27
3.06938e+27
4.98323e+28
8.83468e+28
1.00839e+29
2.86146e+29
1.36292e+27
2.33725e+27
1.2186e+27
7.95946e+28
2.75963e+28
2.79399e+29
2.4113e+27
4.789e+26
9.63391e+26
4.88023e+26
2.15106e+28
-2.4311e+27
4.44234e+26
1.4448e+26
3.28473e+26
1.42292e+26
7.47357e+25
4.25938e+26
8.26628e+25
3.14132e+27
6.84552e+27
3.1531e+27
1.29571e+29
4.80951e+29
3.57144e+29
1.25048e+27
2.32337e+27
1.51168e+27
4.71707e+29
-1.42957e+28
1.36547e+27
5.38358e+26
1.07988e+27
6.44839e+26
-1.18164e+28
4.51615e+26
1.22231e+27
5.52851e+26
1.37565e+26
3.43406e+26
1.38468e+26
4.2855e+26
7.90507e+25
4.22905e+26
7.9503e+25
3.52696e+27
5.19653e+27
3.32805e+27
2.67829e+27
6.18328e+27
2.74218e+27
1.63563e+27
2.26424e+27
1.72178e+27
2.43223e+27
1.48133e+27
2.48576e+27
1.59854e+27
6.22798e+27
6.59267e+27
4.7338e+27
9.77273e+27
7.57395e+27
7.78196e+27
6.04018e+27
2.79293e+27
3.77077e+27
2.78103e+27
5.00579e+27
3.75075e+27
1.62848e+27
2.56471e+27
1.33914e+27
3.09397e+27
1.76792e+27
7.9629e+26
1.21294e+27
6.98116e+26
1.41106e+27
7.72749e+26
1.3543e+27
7.25745e+26
2.83281e+27
3.40557e+27
2.92263e+27
4.39247e+27
3.63922e+27
3.96626e+27
3.29712e+27
1.42292e+27
2.19432e+27
1.59483e+27
2.74795e+27
1.92259e+27
2.41216e+27
1.74652e+27
1.80796e+27
2.03886e+27
1.90486e+27
1.66649e+27
1.51461e+27
1.38641e+27
1.65065e+27
1.3679e+27
1.37968e+27
1.08529e+27
7.56955e+26
1.02311e+27
7.72954e+26
9.62743e+26
6.27528e+26
2.8058e+26
4.67825e+26
3.16092e+26
5.06212e+26
2.79665e+26
8.37705e+25
1.90235e+26
8.90265e+25
2.25157e+26
5.68791e+25
1.56962e+27
1.40272e+27
1.33466e+27
1.02377e+27
9.51945e+26
6.09314e+26
5.14205e+26
2.81915e+26
2.43111e+26
4.31131e+25
8.54508e+26
8.6626e+26
5.7333e+26
8.76374e+26
8.5045e+26
7.1034e+26
8.52015e+26
7.40477e+26
6.79189e+26
4.97674e+26
6.77064e+26
5.28665e+26
4.64807e+26
2.7261e+26
4.62045e+26
2.82069e+26
2.39039e+26
2.3357e+25
2.09721e+26
3.83855e+25
8.84785e+26
9.8269e+26
9.59887e+26
9.04165e+26
9.27618e+26
1.00211e+27
9.69224e+26
7.31227e+26
8.91698e+26
7.94435e+26
8.72561e+26
7.91948e+26
9.02126e+26
7.99767e+26
5.21981e+26
6.80559e+26
5.63296e+26
6.76575e+26
5.55563e+26
6.75756e+26
5.59478e+26
2.83004e+26
4.15285e+26
3.06679e+26
4.23828e+26
3.02076e+26
4.07298e+26
2.91183e+26
3.7809e+25
1.66089e+26
6.88801e+25
1.75401e+26
6.29499e+25
1.54929e+26
6.43856e+25
1.24384e+27
2.98446e+27
1.24515e+27
1.83334e+27
8.61981e+26
9.94848e+27
4.9884e+26
9.73097e+26
5.42064e+26
6.15761e+26
4.35268e+26
3.81111e+26
1.20964e+27
3.06794e+27
1.03622e+28
1.05058e+28
1.51088e+28
1.5607e+28
5.86014e+26
2.86322e+27
1.35891e+27
1.03479e+28
4.01184e+26
1.53877e+28
1.39421e+28
2.94004e+26
1.17215e+27
4.62062e+26
3.7146e+26
1.72905e+26
1.36782e+28
3.72969e+27
5.30133e+25
2.97305e+26
5.17708e+25
1.24291e+26
2.29656e+25
3.56838e+27
2.41762e+28
2.97086e+28
1.87807e+28
1.97223e+28
2.42817e+28
2.6052e+28
1.37973e+27
2.93865e+28
2.21695e+28
1.76843e+28
1.4492e+28
2.56189e+28
2.02322e+28
5.15194e+26
2.16344e+28
1.42038e+28
3.91473e+27
1.94363e+28
4.67788e+27
5.60274e+25
4.30026e+26
4.98534e+25
3.80707e+27
5.3756e+25
4.54841e+27
8.43338e+25
3.54253e+28
4.61448e+28
5.90169e+28
3.26105e+28
3.75077e+28
4.74318e+28
5.66331e+28
2.30792e+28