/*--------------------------------*- C++ -*----------------------------------*\
| =========                 |                                                 |
| \\      /  F ield         | OpenFOAM: The Open Source CFD Toolbox           |
|  \\    /   O peration     | Version:  4.0                                   |
|   \\  /    A nd           | Web:      www.OpenFOAM.org                      |
|    \\/     M anipulation  |                                                 |
\*---------------------------------------------------------------------------*/
FoamFile
{
    version     2.0;
    format      ascii;
    class       volScalarField;
    location    "51";
    object      p;
}
// * * * * * * * * * * * * * * * * * * * * * * * * * * * * * * * * * * * * * //

dimensions      [0 2 -2 0 0 0 0];

internalField   nonuniform List<scalar> 
146404
(
-6.47204
-3.0298
-10.2067
-5.86181
-11.4163
-6.52984
-3.40757
-2.32679
-4.47563
-17.9024
-1.36328
-6.73737
-3.23484
-9.59751
-5.04142
-2.90385
-6.20256
-4.83859
-3.30201
-8.80241
-6.94303
-10.0776
-6.90155
-3.56595
-4.91931
-6.96624
-10.6526
-8.43025
-3.68348
-1.14126
-7.76437
-17.3788
-10.5102
-3.11401
-0.418867
-6.46538
-14.6582
-8.75937
-3.21144
4.76511
0.327107
-18.6137
-3.16583
3.6701
-4.7608
-14.0129
-8.68072
-3.41414
2.24056
-3.12958
-9.33359
-7.77628
-3.84893
0.933082
-2.1387
-7.65831
-6.78561
-3.27772
-1.40481
-1.61488
-6.72665
-5.38339
-3.09122
-1.4251
-6.21805
-2.21859
-1.2513
-7.48131
-16.0893
-9.55291
-4.35633
2.8555
-7.24686
-23.673
-14.3543
-4.59362
4.91135
-9.31901
-31.8239
-19.1877
-5.55949
7.32729
-6.83066
-25.0256
-14.5357
-6.55023
14.3064
-4.59508
-30.4567
-7.1279
12.5079
-7.1498
-25.5782
-18.8063
-7.35826
16.0454
-3.82653
-26.935
-19.718
-7.77453
10.1386
-0.864343
-15.7696
-13.4733
-5.23917
6.8397
-2.57449
-12.8083
-7.78756
-3.86172
5.99423
-0.991055
-11.2254
-2.09044
0.93671
-8.54661
-4.21544
-2.50585
-5.51044
-8.11602
-12.1881
-7.31477
-2.61552
1.08374
-6.78532
-19.4154
-9.02297
-3.46887
8.82926
-1.74164
-27.6546
-8.10131
-5.64915
14.0801
-10.7079
-31.4961
-20.3802
-6.56233
21.8462
-28.449
-48.6299
-35.608
-8.3642
35.0676
-33.7097
-59.8651
-29.802
-10.4939
46.2179
3.76763
-62.0289
-12.1892
37.4811
-23.5657
-65.3775
-38.6092
-12.6197
29.102
-23.7695
-56.7919
-39.7684
-12.6614
26.5495
-1.22455
-33.2209
-27.9405
-9.94966
18.944
5.8546
-26.824
-13.2599
-6.87694
9.4844
0.0785293
-14.4886
-9.62125
-4.50374
3.31594
-0.0503526
-6.89962
-6.38173
-3.41427
0.720148
-3.82683
-4.49802
-3.2145
-7.1985
-8.23022
-10.8577
-7.69775
-3.34998
-0.889724
-8.61002
-20.3192
-10.6559
-3.28485
5.29221
-9.50591
-26.9269
-17.1092
-6.02106
27.6778
-6.57092
-49.658
-20.5282
-8.63314
58.444
-22.6714
-94.0064
-54.8871
-8.10407
100.794
-83.7213
-152.661
-79.1125
-12.8544
110.78
-108.013
-186.743
-77.1391
-20.8114
140.609
-129.991
-65.1689
-32.7499
117.28
-111.336
-184.595
-89.1328
-31.1609
98.4974
-54.4397
-147.296
-100.456
-29.8994
62.9654
0.591192
-99.4461
-100.614
-17.4309
36.0639
8.30154
-53.1904
-38.3282
-11.272
15.7658
0.450383
-21.3873
-17.1358
-6.14852
8.98335
-0.328651
-11.2379
-9.84952
-3.94117
2.49326
1.22831
-5.74568
-6.56726
-3.32902
-9.99943
-8.21635
-11.2412
-6.54577
-3.16697
-1.86624
-10.2261
-15.3144
-10.9596
-3.81804
2.78637
-9.02412
-33.0176
-14.9643
-4.72
16.925
-24.7104
-82.4209
-24.9521
-5.96018
62.8377
-106.322
-149.563
-57.3057
-11.147
146.007
-90.2487
-166.783
-88.8903
-15.1966
311.488
436.31
-84.6691
-15.808
382.102
435.038
436.42
411.7
385.584
432.183
435.462
431.218
310.509
372.756
431.188
434.773
423.026
306.419
429.296
-97.5673
-26.4241
179.454
-149.604
-33.4586
67.9317
-41.0546
-130.286
-82.7604
-16.5332
22.5971
-1.35917
-42.8361
-35.4777
-10.0143
13.5254
4.28571
-20.8678
-20.6949
-6.56997
7.38637
-0.130507
-9.39261
-8.5335
-4.48918
0.783475
0.340548
-6.25984
-4.84418
-2.9799
-1.974
-6.92883
-17.8424
-4.86179
-2.22256
1.48974
-9.40631
-21.2327
-11.4399
-3.53689
10.1765
-10.6734
-37.5606
-19.2705
-7.04683
41.4431
-75.1837
-112.83
-37.4877
-7.94714
136.387
-85.6159
-178.75
-71.5071
-11.0583
376.075
438.499
439.084
-14.2408
413.904
431.522
435.205
407.76
305.822
415.055
428.047
432.638
439.273
334.563
413.692
426.518
432.677
425.482
285.182
409.797
426.033
430.834
416.623
333.822
391.13
426.427
431.71
400.247
297.888
346.576
432.123
433.83
424.848
-32.6491
166.133
-72.4043
-132.44
-100.868
-41.2801
44.8979
-25.0869
-84.4034
-63.1971
-14.4436
22.6613
3.13597
-30.5563
-23.5536
-6.58184
12.1113
2.75918
-16.9508
-11.8376
-3.62313
6.84287
1.4814
-13.2236
-3.48161
-2.46774
-1.62421
-7.17512
-15.5997
-7.68219
-3.50401
6.0573
-2.3615
-24.379
-9.20402
-5.10945
26.7918
-25.239
-9.6641
83.478
-76.9113
-145.098
-48.1081
-15.2763
305.12
-173.502
-67.8689
-12.9045
415.04
432.613
437.359
393.425
279.516
418.444
429.071
436.483
380.032
260.482
416.507
425.463
435.277
432.201
324.043
414.678
422.655
431.127
433.723
214.528
413.892
423.586
432.879
456.482
315.413
409.241
424.337
432.105
349.853
303.646
386.391
427.107
428.578
429.996
317.484
299.754
428.327
433.356
-102.726
-39.118
86.463
-54.8511
-168.413
-91.6449
-18.7663
35.0442
69.4223
-85.1995
-9.60176
15.7804
8.44541
-22.8862
-12.892
-4.54255
7.1085
1.04622
-10.1986
-6.4547
-3.43132
2.25186
-6.32183
-4.12905
-2.47588
-5.7233
-8.67075
-6.30672
-3.50464
0.0826928
-7.03036
-17.2851
-10.2267
-3.37723
7.0525
-8.47125
-32.4168
-17.7083
-5.93136
28.9384
-27.8151
-58.2365
-31.5336
-9.36025
95.6966
-85.3413
-189.773
-66.6199
-20.7393
381.095
438.09
439.407
440.707
-19.9392
418.371
431.56
436.385
389.96
268.348
418.419
427.458
435.201
462.486
179.361
416.322
422.859
427.026
302.429
243.333
410.483
418.896
414.405
343.025
255.124
412.35
419.689
421.795
295.431
236.29
412.535
423.033
431.353
443.563
166.843
399.346
423.874
428.932
413.759
257.957
347.448
431.222
434.61
386.971
319.737
125.032
-65.8126
-144.919
-117.134
-40.0851
27.4329
-0.375684
-51.4975
-31.2595
-10.6503
15.2397
1.06797
-17.0696
-15.2286
-5.75627
8.31875
3.0654
-8.53178
-8.84739
-4.11071
0.656055
2.34427
-3.50859
-4.51925
-2.98095
-12.3998
-5.60934
-8.46883
-6.19197
-3.5601
0.231306
-6.91848
-17.0577
-10.1566
-3.43952
7.30207
-8.50845
-32.5887
-17.9401
-6.01541
28.0951
-33.3789
-73.3943
-41.068
-9.74995
116.825
-64.6993
-159.678
-77.8908
-22.0738
386.857
439.029
438.859
422.088
418.97
432.419
437.233
442.991
346.443
419.26
427.895
443.418
449.245
204.504
413.996
423.103
418.607
340.523
274.514
409.851
418.746
405.699
340.773
264.314
409.099
419.672
413.277
340.393
259.482
413.982
423.771
429.89
457.635
213.502
403.021
424.767
430.086
443.516
258.04
354.212
430.853
433.44
416.791
323.601
138.781
-55.025
-142.712
-108.545
-35.0611
24.796
-6.76803
-48.4914
-37.4072
-11.2929
16.4093
0.791545
-19.5285
-16.3008
-6.09947
8.79201
3.05724
-8.83018
-9.56993
-4.47571
0.840736
2.41397
-3.68325
-4.72612
-3.51094
-5.50354
-8.28481
-5.85408
-3.4986
-1.7202
-5.66103
-13.1279
-8.86519
-3.34448
6.48273
-5.05891
-24.2116
-15.3053
-5.81253
32.3998
-13.3417
-51.3869
-32.8178
-10.7303
118.174
-90.9137
-179.503
-82.3961
-15.4292
375.023
437.861
439.673
414.783
-15.2974
416.88
432.964
436.819
428.169
278.083
420.425
430.039
440.36
442.821
208.515
418.562
425.386
430.093
330.68
238.88
415.508
422.089
419.299
339.053
269.549
416.661
422.975
427.012
334.273
260.131
413.604
426.583
434.999
442.011
142.704
400.094
428.161
431.395
354.126
265.268
338.537
435.326
434.864
424.481
323.518
107.423
-54.2643
-138.509
-124.587
-15.8447
34.8188
1.21072
-53.7146
-44.5495
-9.26634
15.9863
4.15197
-18.2083
-17.1609
-4.67842
6.63188
1.58122
-8.40452
-8.01293
-4.13183
0.107576
2.00899
-3.72278
-4.94029
-2.7828
0.221005
-5.68143
-14.7185
-5.96394
-2.76072
8.07548
-3.84161
-23.8067
-4.58386
-4.7982
26.0804
-12.7179
-8.01798
73.5641
-47.3825
-149.026
-69.7238
-13.2483
287.473
-160.956
-98.4497
-16.4556
398.317
434.742
437.791
440.724
296.282
417.289
431.658
437.217
433.755
227.2
419.53
430.073
435.546
446.981
337.526
419.247
432.38
444.084
447.107
231.48
415.839
428.343
434.93
433.041
259.76
409.275
428.468
432.778
375.009
261.465
386.026
433.053
432.365
374.979
302.631
293.132
433.308
435.582
-94.9744
-30.0052
64.5521
-55.8664
-168.302
-84.2276
-11.6084
25.0174
5.53371
-56.8481
-6.18264
12.0218
10.3324
-26.3361
-16.0352
-3.95112
5.37301
4.30072
-12.5869
-8.58415
-3.10305
1.23562
-7.13279
-4.96572
-2.55942
-2.89347
-7.21078
-16.636
-6.22299
-2.64446
1.53441
-7.92845
-17.19
-10.9036
-4.38996
9.14084
-8.98515
-34.0803
-22.5527
-6.35041
34.8369
-37.1418
-91.593
-46.9693
-9.03116
127.327
-64.4932
-138.369
-96.8849
-20.6299
333.295
440.469
441.046
-19.9575
394.5
435.64
437.38
432.021
268.471
406.973
431.803
436.007
449.403
255.372
408.936
431.421
440.462
360.879
177.126
403.906
430.941
434.418
443.91
264.723
385.856
434.185
433.257
405.536
294.483
338.548
436.209
436.23
344.756
-25.381
93.999
-108.1
-155.358
-97.6885
-11.3572
11.0026
-11.6967
-44.3062
-26.4419
-8.32299
5.24332
-6.53167
-31.6339
-21.3616
-5.83995
3.42009
-7.87754
-17.537
-10.2839
-4.28235
0.898954
-4.56872
-16.508
-5.55153
-2.60595
-10.8285
-6.62681
-9.76835
-6.36053
-3.51458
-2.94641
-7.04903
-11.4394
-8.64545
-3.89129
2.93432
-6.20531
-20.4874
-13.0053
-3.95157
17.068
-9.03797
-34.5879
-28.0305
-7.80581
51.5676
-38.847
-101.449
-55.7234
-10.0054
123.232
-58.1297
-163.917
-95.4744
-24.0907
283.342
437.628
-130.468
-79.9704
-27.4961
354.992
436.949
439.66
395.586
362.427
437.615
440.241
405.292
324.88
352.35
437.199
438.255
424.755
283.089
435.633
-80.5091
-22.2184
96.0399
-92.8089
-11.7241
34.1471
-36.0717
-77.8957
-44.5747
-8.17275
5.00067
-7.10326
-24.6156
-14.6957
-4.71639
-0.258346
-7.94875
-15.6426
-10.0131
-3.74901
-2.0736
-6.39201
-11.8042
-8.49683
-3.78511
-5.7092
-5.59504
-9.72844
-6.42382
-3.22342
-6.88738
-6.18802
-8.91967
-6.71002
-3.00993
-1.40611
-5.69831
-13.4589
-8.42772
-3.16471
5.97336
-5.93592
-21.4807
-14.657
-4.60343
22.9593
0.38689
-43.4922
-21.1579
-6.69148
37.8638
-26.7972
-71.3873
-34.7428
-9.37916
52.6997
-83.8121
-118.93
-57.3075
-11.9794
73.4733
-141.284
-127.297
-57.0026
-18.4213
81.0569
-137.531
-65.9214
-18.1515
75.8987
-119.293
-151.15
-68.2377
-8.9837
47.9979
-84.0092
-123.48
-56.7145
-9.79115
30.0667
-18.5007
-77.36
-43.3358
-7.54989
14.6233
-6.49122
-48.7238
-20.0361
-4.94934
3.24733
-6.37937
-20.4868
-13.9579
-3.88199
-1.94726
-6.74844
-13.075
-9.49667
-4.1573
-5.33669
-6.04216
-9.78134
-7.83537
-3.91696
-4.28679
-6.42765
-11.223
-6.81374
-2.96727
2.23083
-4.62434
-18.1056
-8.82857
-3.36966
6.00893
-4.56903
-24.3362
-7.88536
-4.13327
5.87291
-6.5349
-23.8836
-14.7002
-5.02091
8.05808
-10.1713
-31.6542
-18.1995
-5.88314
22.0882
-14.7286
-42.7136
-27.5179
-6.60425
28.0696
-23.9192
-37.1901
-6.54234
9.55317
-18.9213
-48.3138
-18.5017
-5.97319
4.90104
-7.59463
-27.904
-16.725
-5.44618
6.71794
-7.48996
-25.7288
-18.3171
-4.71397
3.84144
-3.07674
-26.4889
-12.4814
-3.30584
-0.370745
-4.88817
-18.5993
-8.26331
-3.05363
-4.99192
-6.36066
-11.1105
-7.41657
-3.59591
-5.95097
-8.44111
-6.24319
-3.86116
-1.92461
-0.117737
-2.02542
-1.96717
-5.98969
-12.2302
-7.28736
-3.37233
0.715065
-5.32344
-13.8791
-9.76249
-4.1568
0.79058
-6.41983
-16.8731
-9.66071
-3.09477
4.43088
-5.56028
-19.6126
-12.82
-3.3146
8.25726
-7.89802
-14.9797
-3.36543
0.513007
-10.3508
-22.0565
-9.10605
-3.33474
1.35301
-7.11471
-15.0472
-9.20911
-3.37657
-2.07849
-7.46616
-14.5236
-10
-4.15222
-3.66813
-7.49272
-13.6019
-7.9579
-3.40905
-2.63442
0.198359
-20.6088
-10.0466
-2.2796
-12.4574
-4.7165
-2.62471
-9.37553
-5.42789
-8.72545
-5.36984
-2.92449
-5.62843
-5.48619
-8.39256
-6.84167
-3.40242
-3.61469
-5.30327
-10.6964
-7.62838
-3.36933
-1.9056
-5.81413
-12.7067
-7.43017
-3.24762
1.29352
-7.65597
-8.92628
-3.3747
-2.87487
-8.81821
-13.8172
-7.87541
-3.42691
-5.82948
-7.93718
-11.074
-8.15511
-3.60206
-7.19692
-7.32463
-10.327
-8.00083
-3.91469
-9.32953
-6.93511
-10.0291
-6.59733
-3.46774
-10.4922
-5.03356
-9.62438
-5.9642
-2.89764
-7.79329
-7.83291
-3.60578
-2.04171
-11.0343
-7.25382
-12.1933
-6.63316
-3.25231
-6.48861
-3.72028
-9.79684
-10.3268
-7.72841
-6.62822
-3.94859
-3.36226
-0.164848
-7.37461
0.725748
-10.3834
-10.0978
-18.1346
-10.797
-7.86423
-18.5879
-8.41458
-6.49079
-3.88538
-8.18538
-2.03864
-3.23657
-0.195943
-1.78688
-0.226349
-6.98965
11.1049
-1.66671
-4.60815
-2.79518
-9.47826
-9.87449
-6.29171
-19.3954
-1.91586
-4.74527
-3.08235
-1.72783
-0.183961
-2.77911
-0.216618
-2.38121
-3.20657
-8.78084
-9.24798
-6.22604
-4.75625
-3.17148
-2.77843
-0.250193
-6.55562
-6.79576
-9.68604
-10.0061
-7.58698
-6.40579
-3.87442
-3.31551
-0.0313221
-12.7052
-6.66535
-8.2184
-6.52046
-6.84666
-9.47258
-6.80931
-8.46615
-9.7827
-7.57353
-9.39132
-8.28294
-6.49175
-4.07471
-7.15701
-4.76453
-3.46465
-0.145937
-3.74647
-0.654622
-7.4851
-6.32785
-5.49272
-5.87337
-6.67141
-8.48019
-6.58049
-9.24813
-9.39234
-8.64255
-10.6051
-9.5076
-7.55269
-5.01296
-8.4206
-5.48857
-3.83152
-0.573603
-4.14805
-0.742687
-10.6615
-5.69637
-5.2098
-5.42555
-4.02708
-4.59264
-5.98228
-9.61755
-6.52592
-8.76838
-6.43125
-9.96207
-8.35212
-10.4391
-8.4197
-11.319
-10.3496
-12.8282
-11.6222
-5.05321
-6.42307
-4.2383
-8.12547
-5.96931
-8.79853
-6.2302
-3.41153
-0.43755
-3.61539
-1.34108
-3.62693
-1.36563
-5.3821
-3.31444
0.85167
-2.67106
-3.35137
0.208224
1.42571
-10.6804
-6.89574
-18.4875
-6.71732
-10.8732
-11.6392
-21.6273
-8.67589
-18.8089
-9.82065
-12.668
-10.5351
-22.4831
-12.1963
-4.28633
-4.20419
-2.77679
-7.16435
-5.71528
-4.4225
-2.7609
-0.546
-2.01797
-0.512968
-3.62466
-1.53622
-2.52334
-1.19532
6.29229
-6.35961
-1.57217
2.47926
11.2622
0.881049
0.176185
-3.06409
-9.21755
-0.302551
-2.71708
-10.6088
-9.86148
-6.90231
-14.2911
-11.4037
-9.79856
-1.99988
-4.64494
-3.37611
-17.9685
-3.87836
-7.31097
-4.51075
-0.373684
-2.71251
-0.409515
-3.15662
-1.30653
-3.32317
-1.50211
-2.47118
-2.51702
0.175953
-1.02504
-0.379237
-1.43566
-8.76059
-2.69898
-6.02695
-4.09206
-8.67805
-4.02181
-6.80069
-7.2079
-6.56167
-5.75981
-11.3414
-10.1802
-8.87976
-8.03723
-3.54119
-4.96434
-3.46325
-6.48409
-4.49387
-6.73618
-5.02875
-0.508467
-3.04185
-0.186829
-3.16335
-1.38096
-3.32433
-1.40097
-0.120503
-1.10113
-1.06603
-1.14307
-5.58604
-2.91897
-5.00557
-2.08652
-5.12071
-5.51528
-7.42097
-7.63063
-6.49178
-6.90963
-3.5127
-6.22991
-4.78125
-6.26509
-4.46433
-0.156151
-3.01831
-1.24164
-3.5105
-0.645066
-1.46446
-1.20575
-3.31877
-1.18442
-2.03844
-4.90761
-1.50135
-4.6142
-6.24198
-6.52983
-6.02614
-5.88154
-5.99383
-4.2334
-4.98024
-3.75589
-3.39597
-0.609838
-3.05253
-0.555193
-3.99184
-1.14059
-1.4304
-5.50252
-6.17617
-5.79719
-5.16858
-3.48668
-3.04767
-0.338936
-5.80565
14.395
-3.18134
-2.53155
-2.11927
-0.401339
-10.9405
-6.47767
-4.2794
-0.624555
-4.48125
-4.46987
-6.73876
-10.1989
-10.7493
-7.83343
-12.626
-10.5935
-8.3745
-11.6399
-13.841
-11.4723
-6.3563
-4.0526
-0.509929
-3.28563
-6.62946
-4.19797
-3.1553
-0.420172
-2.49611
-0.522996
-2.8043
-1.13617
-6.39034
-6.05089
-5.80861
-4.27383
-4.38934
-3.29574
-4.33843
-9.51982
-7.03954
-8.87291
-7.41155
-11.3589
-7.17721
-10.8188
-8.52218
-10.4225
-10.0453
-13.0563
-11.7811
-13.1731
-12.1282
-4.58373
-7.56605
-5.78539
-8.10909
-5.63991
-9.17062
-6.47465
-0.545784
-3.28996
-1.29386
-3.62525
-1.54727
-3.80847
-1.51468
-12.1043
-11.5068
-22.375
-6.65532
-15.2311
-4.76418
-31.0021
-12.6799
-23.4819
-13.0587
-18.6908
-16.2124
-31.6489
-19.4144
-2.5796
-11.8646
-4.61125
-1.52255
-16.6979
-15.3201
-12.7412
-11.311
-21.9477
-18.7288
-16.8827
0.40715
-1.02195
-0.667073
4.94966
2.42852
3.56408
2.42608
-0.582147
3.03016
2.27499
4.06138
4.94033
-5.56542
-2.45317
-7.88642
0.466134
-14.3268
-6.53294
-10.5152
-9.493
-14.5331
-8.35287
-3.78935
-6.55797
-4.38875
-3.92593
-3.85916
-0.566088
-3.04658
-1.36572
-2.7421
-0.571482
3.92272
7.81278
2.80403
-16.1392
1.06673
-9.51379
-16.4796
-8.97292
-10.4345
-6.07638
-6.98203
-1.97356
-4.08296
-2.03867
-1.77489
-0.481915
-1.95965
-0.265068
-8.92069
-7.33576
-7.9021
-10.0504
-10.7013
-8.22294
-6.65261
-3.91319
-2.99494
-0.542398
-4.08309
0.914292
-7.29679
-6.69746
-3.44158
-4.04851
22.8702
-8.17119
-10.7495
-7.44926
-15.8692
-34.7931
-11.7714
-9.8898
-16.2937
-10.738
1.03746
-3.06762
-6.11374
-4.23105
-5.92607
-4.18081
-2.3366
-0.549947
-2.65961
-1.07834
-2.75531
-1.16895
-6.58385
-15.8514
-6.52247
-18.9434
-3.36178
-28.0245
-16.4399
-12.1963
-19.0868
-10.6965
-26.5059
-16.87
-20.4915
-4.90977
-33.3808
-12.5927
-32.1082
-7.95804
-61.86
-22.2347
-33.8626
-21.984
-38.0909
-33.1344
-56.356
-41.9153
-1.72895
-20.0181
1.74198
-1.91946
-37.5713
-24.8004
-22.408
-20.9349
-48.6626
-41.4271
-35.74
-11.3103
1.56037
-15.5837
4.11376
-19.805
5.97549
-17.4608
-11.6873
-15.7831
-8.85683
-22.8791
-19.3336
-18.6018
-13.7442
9.98019
-2.03589
2.48876
7.38588
7.60262
4.27526
3.76681
0.939555
-8.42208
3.23467
-12.6646
-0.110336
-6.02237
-9.56201
-10.0867
-6.91529
-15.7242
-12.5531
-9.60514
-9.00599
-2.61202
-3.93396
-2.80066
-8.14788
-4.444
-6.00707
-4.49683
-0.99786
-2.36003
-0.555506
-3.21091
-1.36649
-3.29483
-1.55385
2.15995
2.52672
1.97567
0.947277
-7.59384
0.476573
-5.22444
0.584393
-3.2641
-5.88307
-7.05342
-7.01491
-4.09464
-5.1752
-2.8664
-6.13962
-3.95703
-4.51107
-3.7498
-0.308995
-3.3097
-0.72257
-3.17352
-0.246059
-11.2006
-8.11778
-7.95659
-9.02554
-9.46862
-7.84908
-6.64972
-4.41995
-3.44973
-0.51613
-7.93395
-7.23793
-9.39747
-7.89769
-6.33569
-6.76867
-8.14412
-9.37237
-8.10698
-9.38941
-8.311
-10.3603
-10.5198
-9.34482
-9.77056
-8.3926
-11.6292
-10.4661
-6.82115
-5.02378
-7.10491
-4.57081
-7.77839
-5.57128
-2.98846
-1.17905
-3.43092
-0.540796
-3.18167
-1.23465
-19.3854
-6.17742
-32.1231
-8.46476
-18.8441
-4.54854
-33.5515
-13.7899
-28.5589
-22.3754
-22.5122
-19.5721
-35.2821
-25.7959
-29.1788
-9.50887
-26.4411
-0.944239
-42.4199
-7.44176
-53.3316
-17.6465
-28.4927
-27.681
-42.4602
-27.1206
-62.3627
-47.0731
-55.0945
-6.78279
-73.1505
-122.164
-165.146
-104.735
-176.886
-49.3059
-65.4137
-50.7379
-127.182
-81.7823
-177.415
-68.1317
-8.02226
-51.0365
-70.82
-89.4911
-173.404
-55.4204
-55.2184
-47.1254
-67.3998
-163.915
-84.6306
-21.5509
4.52273
-23.5508
5.2715
-62.4188
46.4698
-35.8127
-27.6045
-26.9585
-83.2833
-92.4038
-62.8088
-24.7286
4.55441
-16.765
17.1017
-49.2965
4.86119
-17.1052
-20.989
-19.817
-16.4188
-48.1165
-48.952
-21.661
-24.1632
3.12323
-3.98356
1.27308
5.69462
3.97932
2.85624
2.5162
-3.55471
0.485715
-2.70433
0.815013
-4.11719
0.978034
-2.08512
-7.72841
-4.39981
-5.50019
-8.6253
-9.37975
-6.1554
-7.19477
-4.95904
-4.70917
-3.966
-8.72451
-6.33644
-6.99875
-5.8114
-1.57166
-3.18469
-0.59499
-4.2511
-1.90604
-3.69198
-1.63608
0.947958
1.29963
1.55702
-2.94918
0.934909
-2.90115
-5.04896
-5.05012
-6.10569
-3.7759
-6.08816
-4.35523
-0.315833
-3.45137
-0.708049
-8.43067
-10.543
-10.6906
-7.28025
-6.82488
-3.69227
-3.30422
0.133473
-9.86604
-7.9812
-13.5471
-8.00028
-6.53293
-7.42211
-8.09591
-9.3232
-8.16948
-10.3815
-8.57135
-10.0746
-9.77495
-8.4254
-10.5276
-7.41087
-11.0543
-9.93555
-7.09955
-4.57373
-6.70407
-3.69175
-7.30612
-5.11954
-3.45809
-0.514765
-3.20788
-0.0633423
-2.93244
-1.10057
-48.6842
-9.6342
-71.3164
-39.8565
-90.3439
-84.4283
-170.661
-34.869
-75.2597
-69.5835
-94.0342
-63.9918
-172.143
-115.702
-87.2371
-86.4137
-127.084
-6.6528
-97.3978
-131.518
-86.4962
-146.43
-134.687
-132.638
-143.432
-117.739
-137.325
-89.4688
-184.665
-134.797
434.951
437.603
-133.58
-185.339
-106.764
-138.069
-107.016
436.982
-34.3172
-76.9791
-38.1363
-80.6497
-26.9506
-25.8149
-3.49361
-16.4023
-4.88957
-18.8655
-3.78486
-16.1587
-1.71581
-100.847
138.591
-182.669
334.713
430.795
346.395
426.329
-189.769
-166.807
-179.169
436.565
437.536
433.915
436.408
-95.2096
-177.644
-64.305
436.845
388.482
435.991
366.709
-44.3617
-64.5107
-46.2419
419.281
-24.7787
443.015
-6.5763
-29.3126
-6.86097
-19.5304
-2.19626
-1.54768
-140.088
122.482
-137.497
346.634
426.747
339.81
425.227
-128.518
-182.674
433.708
435.487
433.136
435.524
-64.3183
-181.128
-93.9152
435.307
402.544
435.076
360.418
-45.3659
-75.1502
-52.1715
428.813
405.946
-39.5962
-10.2354
-28.9964
-9.37708
-0.827973
-32.4988
-4.27445
-181.387
-57.3018
-150.938
432.933
435.643
431.302
-111.407
-164.571
-136.298
435.233
385.953
-112.549
-52.1314
-93.4346
-58.0528
417.184
-40.0201
-100.715
-46.6839
-9.19344
-32.7465
-7.41148
-33.3118
-4.94184
-26.8118
-2.58301
-102.62
-50.0631
-88.996
-117.461
-66.8821
-91.8261
-147.583
-132.679
-143.025
-122.371
-118.126
-101.286
-130.266
40.9622
51.4918
39.4673
107.837
23.0038
73.7821
28.6047
-74.7435
21.0873
-66.3948
-15.59
-94.2789
-122.819
-60.8992
-70.9842
-116.187
-152.789
-51.632
-65.1271
-38.8738
-132.984
-70.3283
-126.784
-58.8269
-40.6442
2.35987
-19.7031
-16.9898
-53.2567
-3.33807
-33.4217
-56.3123
-29.5037
-36.3631
-89.2582
-103.94
-48.0691
-58.6384
1.87995
4.58759
3.08987
1.34658
1.67327
-1.78293
0.875778
-3.06681
0.605525
-3.71479
-6.66511
-7.21068
-7.87893
-5.34101
-5.98964
-5.11627
-7.22247
-5.52396
-5.16695
-3.78562
-1.44314
-3.51838
-1.50407
-2.99118
-0.592084
0.118951
1.28638
0.727871
-4.24279
-5.15176
-5.50187
-4.45115
-3.47845
-3.07422
-0.327568
-14.1717
-8.59348
-6.44248
-4.38594
-8.73715
-10.961
-9.00137
-15.8417
-11.0549
-7.15653
-15.7291
-8.44653
-6.44791
-3.28485
-4.54549
-3.08496
-3.9927
0.00653749
-2.40724
-0.457375
-7.6245
-5.48305
-6.50038
-5.1022
-5.6454
-3.17438
-5.23664
-11.1171
-9.13431
-11.6867
-9.7724
-14.5859
-9.89826
-14.2093
-8.49759
-12.971
-11.4933
-14.4301
-11.0654
-15.3338
-12.9567
-3.97953
-8.18013
-5.69619
-5.39131
-4.01086
-7.64278
-5.13487
-0.439671
-3.29407
-1.28075
-2.57188
-1.04921
-3.21856
-1.32251
-167.223
-109.894
-167.974
-74.2948
-202.044
439.466
-100.654
-173.821
-113.76
-180.379
-114.311
-89.8158
-165.302
-138.99
439.313
439.869
433.195
437.47
-116.96
-146.754
-103.434
439.706
-87.0486
435.741
376.665
-29.8725
-85.4141
-28.9992
-67.9762
-22.7967
425.458
320.401
-4.16354
-18.1167
-1.89564
-13.9767
-1.58361
318.186
434.615
437.547
433.834
436.397
431.09
434.507
-101
436.735
461.715
434.413
407.053
433.598
416.22
-25.2675
425.851
408.174
317.503
419.775
349.55
-1.29911
-13.8802
-0.144341
319.944
18.0201
278.99
8.20704
436.962
432.605
434.545
428.374
433.198
427.477
431.768
403.097
435.939
344.622
433.28
413.698
432.387
442.995
450.915
355.009
440.676
314.19
445.193
247.96
-0.299482
332.813
-1.44853
247.272
3.57778
304.203
0.460925
433.843
432.279
435.031
426.786
431.066
426.145
430.655
405.09
434.276
392.086
432.276
435.138
430.365
475.799
325.776
412.044
326.341
425.81
297.874
372.198
294.324
-0.222171
-3.16171
298.048
297.699
6.48435
435.207
431.15
435.184
427.017
431.357
429.171
432.541
374.286
434.532
-110.372
430.923
415.913
430.46
377.955
-96.8153
-38.8278
353.733
224.109
412.412
279.258
-4.90816
-28.6033
-1.4131
238.585
6.71557
316.684
-4.86231
434.942
-74.0226
427.055
432.988
432.572
434.307
-111.123
-120.688
432.434
551.086
433.48
411.958
-40.1647
-115.092
-54.6555
405.114
325.54
397.297
-43.6847
-2.18051
-38.3535
-6.45263
306.46
-12.6694
-31.9655
-0.347385
-73.665
-93.2663
430.237
434.421
-67.6441
-109.696
-132.725
-162.32
433.954
411.348
-122.742
-139.404
-65.8105
-139.366
-78.8391
-47.8607
-112.172
-80.8788
1.7477
5.24264
4.30471
-4.67174
0.691418
-10.2402
-5.92967
-11.2403
-7.38149
-3.50642
-4.28364
-2.6401
-0.575358
-2.45518
-0.558098
-4.61745
-3.3893
-3.16571
-1.83323
-8.27734
-18.1814
-4.35254
-15.3761
-17.4543
-6.36904
-15.8821
-11.2284
-1.63847
-2.82789
-7.16244
-3.55111
-2.06349
-0.533591
-2.80218
-0.4984
-2.33877
-0.488962
-3.6326
-0.472792
-0.698104
2.29106
2.27958
-18.1312
-8.41183
-19.7292
-4.1289
-15.8904
-4.95225
-24.0243
-8.22911
-19.6632
-13.8348
-16.5264
-12.5691
-25.2566
-9.5717
-3.62428
-10.2376
-4.264
-9.35245
-3.96124
-3.2984
-5.74838
-20.6776
-11.1268
-26.8088
-6.74997
-26.1977
-11.9498
-16.3432
-29.7505
-24.3966
-27.0601
-10.5001
-34.5846
-30.9727
-26.1758
-47.8467
-12.5665
-55.3711
-36.2601
-110.015
-34.4334
-55.7309
-46.1825
-51.1244
-41.3992
-109.867
-61.0118
-126.412
-118.797
-182.828
-69.019
-145.008
-132.182
-185.882
-73.4869
-186.114
-115.296
-142.696
-95.7015
-175.774
-96.982
-182.91
439.418
440.143
-184.667
434.688
438.883
-99.6737
439.839
-85.5852
-176.371
-82.1651
438.225
460.511
-25.8152
-68.6563
-23.7139
-59.1154
-21.7336
408.02
298.951
-3.2965
-14.2051
-1.19522
-14.1987
-2.48869
312.109
-2.44416
436.877
418.584
437.614
372.296
437.331
385.174
-21.4953
434.926
317.767
353.759
277.1
380.82
155.575
-0.826958
307.404
309.127
-10.3821
285.202
-0.206938
424.191
433.858
361.771
437.334
411.679
434.699
456.643
312.147
418.555
302.772
421.904
271.418
441.498
250.238
2.16703
336.906
7.74587
288.601
-1.52461
230.308
-81.0501
415.212
432.471
440.896
433.355
560.249
432.163
623.369
321.671
443.951
222.709
426.65
250.398
433.475
282.887
0.0898392
304.95
3.1803
124.143
275.511
-35.6225
431.059
430.494
417.314
433.137
468.923
432.574
428.821
274.003
365.853
306.584
429.264
8.30831
438.02
198.874
269.271
1.49407
196.619
-71.4436
376.488
431.231
442.349
432.183
446.708
431.97
422.636
275.711
424.788
299.559
452.063
234.802
388.508
232.439
4.82903
339.053
-1.99725
167.294
269.047
-1.88126
411.172
433.543
409.701
431.56
211.662
429.925
410.63
294.608
418.491
401.933
149.964
431.37
288.032
-24.281
0.749239
276.151
-0.742831
258.846
0.563505
434.57
-65.8025
-116.043
430.873
430.642
429.295
434.378
421.049
-128.377
-128.09
430.4
411.408
433.196
-45.5907
-107.286
-62.977
431.712
288.306
-104.359
-50.0732
0.743101
-43.4275
-2.6111
319.258
-2.46556
-40.5831
-1.37243
-117.792
-80.0371
-143.789
428.478
-77.0354
-174.464
-141.379
-162.32
-139.548
-117.222
-181.204
-137.381
-70.5475
-102.314
-70.0882
-105.583
-57.2284
-100.269
-73.6066
-62.6162
-3.40678
-30.465
-55.3035
-150.119
7.2412
-59.5431
-83.7419
-44.15
-49.8614
-145.636
-107.913
-58.5855
-57.5583
-18.4634
1.55108
-15.5621
16.3353
-51.4012
11.2787
-29.9887
-18.3643
-17.7069
-51.419
-45.1991
-26.4376
-14.45
4.0641
-12.0554
5.80267
-28.6311
6.80321
-13.4963
-15.349
-12.7242
-9.15528
-26.4015
-21.8123
-16.1559
-11.8289
6.77642
7.83487
8.14426
0.256128
4.30274
-13.2471
5.22281
-10.1969
2.88676
-6.60836
-8.2853
-12.5748
-10.5304
-8.42167
-6.48606
-2.09448
-7.57976
-2.42184
-3.8406
-2.48775
-1.18764
-2.28255
-1.08025
-2.15525
-0.573034
4.03227
2.73418
-6.09031
-7.14199
-5.62591
-4.03573
-2.64175
-2.41197
-0.293211
-3.60824
-3.74126
-5.68583
-4.73834
-4.78231
-7.12838
-10.8632
-5.6795
-8.38863
-6.47017
-9.2667
-12.4144
-10.5035
-8.85354
-7.04046
-11.4199
-10.2219
-6.2794
-4.14255
-6.24866
-4.00903
-7.24284
-5.11316
-2.75997
-1.14033
-3.47138
0.00857068
-3.23891
-1.32869
-15.0482
-4.48986
-19.5298
-5.83512
-10.3715
-6.26136
-12.9445
-13.2631
-20.3286
-13.6992
-13.6453
-12.8414
-17.6086
-15.4621
-22.8853
-5.03147
-17.149
-9.18248
-26.5002
-14.46
-23.4114
-21.6243
-32.364
-27.7068
-36.2594
-125.063
-13.1211
-47.0973
-62.958
-151.779
-121.138
-55.0656
-49.8832
-40.567
-143.372
-78.0457
-31.9687
232.575
-133.669
110.731
-71.5982
311.446
434.119
-151.736
-136.397
-183.391
-100.397
-177.871
437.906
440.357
-72.6441
-179.16
-97.0132
-176.014
-82.8037
439.978
-33.1749
-67.5469
-22.2137
-66.7398
-40.1432
-30.1618
-4.56901
-14.9584
-5.47602
-16.316
-5.21349
-19.0368
-2.49242
-182.526
436.509
438.071
438.285
440.066
434.674
437.389
-85.1321
437.82
403.947
439.327
422.915
436.579
422.759
-19.0899
407.107
296.594
432.502
-25.3572
429.27
223.063
-2.60893
299.348
6.84581
-19.6075
-1.16637
277.489
1.33543
558.886
436.015
427.403
436.584
359.07
436.036
362.35
271.419
414.575
253.635
417.771
284.138
446.29
66.0597
0.0864323
316.568
315.908
3.89959
230.242
-107.784
384.906
437.838
419.489
436.265
440.127
430.751
494.92
197.822
441.641
258.137
438.643
153.074
410.672
167.461
0.0666173
378.115
-30.0042
211.021
337.979
584.54
431.306
597.07
428.201
443.4
421.454
377.035
215.602
434.37
214.537
353.333
166.967
338.053
269.399
-35.5784
236.893
-31.6561
234.808
267.898
491.614
417.763
413.806
417.292
412.225
416.778
413.177
415.484
429.548
422.704
429.991
419.754
421.137
420.19
423.153
474.921
431.853
494.589
420.805
377.412
422.027
356.667
179.902
455.039
73.7881
339.447
269.297
279.284
252.986
170.429
265.782
456.058
248.504
700.577
457
433.554
211.962
425.897
396.394
429.691
428.447
212.115
397.937
204.456
272.294
197.548
442.344
236.218
384.792
-3.19592
221.019
663.663
257.694
387.044
429.11
411.643
430.589
552.331
429.412
403.147
185.993
428.669
329.669
441.058
231.756
427.698
207.909
-28.2567
286.377
1.20942
308.82
237.301
-3.46415
430.468
432.188
434.118
425.574
429.441
431.309
433.014
440.367
433.051
428.971
445.341
432.225
359.875
306.066
-48.6124
425.712
236.094
344.683
300.935
-7.9305
-39.4317
-0.631563
263.111
-26.8902
302.969
0.529148
417.836
168.299
-16.1146
330.701
419.581
186.607
-79.1703
434.192
-105.151
-172.895
433.074
434.766
-86.3868
-126.58
-113.067
-172.85
-123.691
433.519
326.971
-138.052
-140.984
-53.4364
-108.782
-63.6254
390.414
306.162
-118.52
-61.5668
-1.88951
-35.095
-8.77609
-0.614407
-37.4866
-9.33028
-165.876
27.822
-58.1168
-116.865
5.52483
-72.363
-107.222
-64.7852
-140.401
-151.78
-90.5235
-88.448
10.0993
-27.568
10.4777
-44.0282
3.20044
-16.1209
-27.1839
-24.2674
-54.1854
-58.7858
-26.7039
-30.4214
-18.3754
3.76967
-11.1796
3.94036
-8.37873
2.89308
-5.89677
-19.1951
-13.419
-12.2452
-17.2727
-18.8062
-12.4337
-13.6984
6.10032
0.403376
3.92619
7.26781
5.69345
2.70215
3.1345
-6.03629
1.9067
-5.52688
1.89279
-3.94066
1.98827
-2.58935
-9.67925
-7.20064
-6.38735
-8.40233
-9.03584
-4.46507
-5.70383
-4.56671
-4.6163
-3.13182
-7.57836
-5.33993
-5.01952
-3.66746
-1.63888
-2.49882
-0.535652
-3.74336
-1.69522
-2.9521
-0.702214
3.41128
-0.141795
2.8045
-5.315
2.27334
-2.7554
-5.33429
-3.75602
-4.88924
-2.85548
-4.52723
-3.34923
-0.364085
-2.90656
-0.392736
-7.57455
-8.29252
-6.69533
-5.95973
-4.10531
-3.5349
0.123836
-5.7109
-4.19267
-4.68968
-12.4007
-5.6972
-3.91951
-4.5548
-8.14127
-5.89256
-8.57193
-5.61798
-7.67567
-5.71504
-8.21184
-7.11534
-11.3279
-10.2969
-8.56869
-7.48052
-11.1577
-10.2547
-4.08442
-7.88034
-5.67892
-6.26303
-4.4952
-8.08073
-5.95038
-0.056551
-3.43924
-1.38484
-3.52449
-0.553222
-3.58211
-1.45603
-185.549
438.723
440.292
-63.2757
-159.294
439.592
439.943
-86.791
439.862
-162.037
-106.233
439.471
431.944
-37.6921
-29.5839
-79.5098
-35.63
437.441
-25.6933
-5.722
-20.0604
-2.86784