/*--------------------------------*- C++ -*----------------------------------*\
| =========                 |                                                 |
| \\      /  F ield         | OpenFOAM: The Open Source CFD Toolbox           |
|  \\    /   O peration     | Version:  4.0                                   |
|   \\  /    A nd           | Web:      www.OpenFOAM.org                      |
|    \\/     M anipulation  |                                                 |
\*---------------------------------------------------------------------------*/
FoamFile
{
    version     2.0;
    format      ascii;
    class       volScalarField;
    location    "98";
    object      p;
}
// * * * * * * * * * * * * * * * * * * * * * * * * * * * * * * * * * * * * * //

dimensions      [0 2 -2 0 0 0 0];

internalField   nonuniform List<scalar> 
146404
(
-7.98537
-3.85437
-10.1498
-6.11985
-12.5408
-8.01447
-4.02234
-2.17049
-6.78285
-22.5469
-2.38378
-6.56834
-3.31822
-10.5802
-6.4987
-3.50647
-6.95969
-6.17811
-4.13226
-9.53419
-7.61789
-11.3789
-8.67238
-4.36341
-5.1121
-7.27641
-11.7645
-10.7058
-4.91194
-0.720812
-7.40097
-18.8389
-14.6903
-4.81584
0.0447392
-6.46214
-15.91
-11.7567
-4.72307
5.32447
-0.619371
-21.4617
-4.34429
4.26844
-4.9924
-15.533
-11.7571
-4.99182
2.681
-3.25208
-10.1511
-9.64966
-4.96822
1.77513
-1.77503
-8.16456
-7.93571
-4.08686
0.0421409
-0.952582
-6.95708
-5.64631
-3.2181
-3.55313
-8.76911
-3.20689
-2.08432
-8.01237
-17.8361
-12.5184
-5.85986
3.68885
-8.15399
-25.5023
-20.6515
-8.15278
6.77914
-11.1898
-33.7201
-27.9567
-9.4009
9.09295
-6.805
-26.2174
-21.7881
-10.8214
16.2374
-5.81179
-37.8254
-10.5527
13.5535
-7.4481
-27.2357
-25.5071
-11.8651
17.3383
-5.14414
-26.4829
-24.3794
-12.2886
11.4922
-0.582128
-16.0772
-16.1058
-7.75195
9.75072
-2.64807
-12.7898
-7.68239
-4.56033
11.9212
-10.6654
-7.68017
-1.42898
10.0124
-1.8287
-1.47522
-1.16483
-9.1299
-12.0566
-16.0088
-10.5937
-4.13631
-2.06169
-11.436
-23.9763
-12.835
-5.68747
7.51521
-0.752445
-29.92
-13.2812
-10.4777
14.8616
-11.0941
-36.83
-33.5233
-12.8008
25.9458
-29.8588
-58.651
-65.4537
-13.9709
39.8925
-29.8047
-74.2566
-55.5338
-13.499
51.0985
6.76117
-103.594
-14.0613
40.6296
-22.6718
-75.3048
-58.3227
-18.5631
32.2957
-18.0902
-58.0204
-58.3063
-22.0507
28.9413
-1.99746
-34.6653
-38.3227
-16.1853
25.0419
3.94629
-27.5909
-11.6574
-9.0223
18.3383
10.6515
-8.29857
-8.33815
-5.02778
12.6666
9.29138
-0.0990338
-3.09221
-2.48927
10.0698
3.69421
-0.109345
-1.52405
-10.9838
-12.0445
-14.4361
-10.5844
-4.48772
-4.57852
-13.5967
-25.6661
-15.6572
-5.26126
1.47676
-15.3732
-33.6833
-24.9028
-8.69688
24.8049
-14.2794
-57.5097
-28.6458
-12.0877
60.2454
-19.4056
-99.3032
-114.879
-21.7631
106.95
-73.1853
-159.493
-153.281
-32.5468
120.977
-90.4033
-154.768
-157.412
-37.0217
152.467
-62.0689
-143.791
-31.5115
121.125
-105.272
-157.17
-155.157
-46.6299
99.6016
-71.8693
-138.626
-178.22
-56.85
69.0538
-0.967451
-91.0199
-153.884
-41.9582
46.5403
26.0558
-41.0177
-59.4336
-23.6087
28.3294
11.7459
-15.81
-21.372
-11.3905
19.5751
10.1675
-3.40464
-7.89826
-4.27403
12.9492
11.0248
2.49058
-2.98785
-2.51694
-13.678
-12.0101
-14.8131
-9.12777
-4.12094
-5.87698
-14.3581
-19.4299
-14.8697
-5.31065
-0.985779
-15.695
-38.3017
-24.9311
-8.04548
12.1911
-30.264
-87.4846
-49.0326
-12.9158
58.0152
-115.775
-172.809
-129.798
-17.0923
144.57
-98.68
-157.453
-170.601
-27.8604
313.696
436.655
-136.584
-21.6153
383.872
434.897
436.264
411.25
387.236
431.98
435.706
429.587
305.485
373.403
431.437
435.154
422.974
307.23
430.635
-150.894
-44.6341
186.316
-105.895
-71.8919
83.89
-10.3506
-66.7194
-130.692
-48.769
39.8539
9.5826
-41.9072
-59.7796
-23.0999
26.6111
17.37
-10.7626
-19.3541
-8.33434
18.997
10.6276
-1.40127
-5.45649
-4.43116
11.2973
10.4153
1.54979
-0.556067
-1.48675
-5.06673
-11.1931
-21.6253
-7.48121
-3.09373
-2.1107
-14.2373
-26.0184
-15.1087
-5.27346
6.06844
-18.96
-43.977
-29.3391
-8.85623
36.6362
-74.1073
-123.549
-65.7702
-14.2488
122.397
-156.364
-206.131
-136.127
-18.179
374.737
438.095
438.954
-14.6375
413.86
431.521
435.139
406.297
304.058
415.174
428.024
432.612
438.499
331.384
413.963
426.618
432.814
425.612
283.94
410.394
426.453
431.244
417.074
331.911
392.432
426.916
432.049
399.866
294.078
351.345
432.884
433.631
424.536
-60.3206
186.172
-21.2528
-63.266
-131.163
-83.412
66.999
4.78581
-69.0453
-119.727
-41.9696
38.3353
18.6754
-21.5966
-29.2373
-14.5279
24.0013
14.942
-8.49952
-9.53211
-5.1982
16.9329
12.481
-5.6082
0.468591
-1.82026
-3.55618
-8.46191
-17.9123
-10.4917
-4.79254
4.10194
-3.19794
-27.7095
-14.0134
-7.22699
25.0356
-38.9983
-10.7526
83.0005
-80.9726
-168.654
-120.06
-14.0177
303.528
-207.458
-123.139
-8.95651
414.643
432.24
437.017
392.147
274.326
418.003
428.666
436.154
379.085
265.805
416.143
425.015
435.047
431.967
332.862
414.394
422.397
431.058
432.422
212.998
414.082
423.618
432.936
455.431
316.301
410.192
424.676
432.535
352.104
296.917
389.247
427.594
428.558
430.444
312.125
309.609
430.332
433.341
-113.8
-64.8569
107.379
6.19156
-58.8218
-118.181
-50.0889
50.1464
93.6567
-184.235
-20.155
26.449
17.1158
-17.3799
-12.0403
-6.28588
15.5869
7.94495
-5.62278
-4.60476
-3.72605
9.15616
-1.53256
-1.5505
-1.60726
-7.13161
-10.5557
-8.46166
-4.71054
-1.19049
-7.76178
-19.5784
-13.5503
-4.71448
6.51785
-12.1589
-38.689
-26.3725
-8.28097
30.326
-29.7541
-73.0431
-53.0701
-12.6057
99.5466
-71.7096
-178.824
-122.281
-25.8535
381.86
437.575
438.462
438.965
1.51291
417.968
431.028
435.747
388.32
260.885
417.836
426.719
434.547
458.876
164.055
415.408
421.73
426.007
290.291
231.881
409.163
417.998
415.545
338.885
259.639
411.617
419.393
421.276
290.147
225.088
412.925
423.165
431.48
440.326
177.667
400.861
424.282
428.947
412.908
257.259
352.337
431.759
434.262
384.999
311.303
141.285
-30.2131
-73.6789
-149.405
-77.4577
39.7046
13.3788
-43.772
-58.7622
-21.4148
23.2264
7.88311
-12.3383
-18.3462
-8.69298
15.8123
9.41519
-2.51994
-8.91212
-5.26643
7.86129
8.85519
1.37817
-2.36695
-2.72324
-13.5624
-6.79575
-10.2991
-8.56805
-4.61474
-0.693393
-7.30432
-19.2344
-13.9207
-4.96389
7.47489
-12.3096
-38.7424
-27.917
-9.04081
33.493
-31.4145
-78.6356
-59.645
-12.2777
118.883
-66.7919
-180.909
-129.792
-29.3376
386.608
438.666
438.185
422.359
418.622
431.748
436.652
442.199
331.121
418.576
426.987
443.238
451.009
204.509
413.286
421.377
420.032
332.049
278.398
409.173
417.356
406.514
339.459
268.444
407.559
419.435
414.216
334.58
264.001
413.929
423.507
429.58
455.868
212.356
403.637
424.874
429.974
442.419
260.806
356.541
431.154
432.737
416.144
314.74
148.484
-38.8974
-93.6554
-152.214
-60.2718
34.97
2.15343
-44.2096
-53.0718
-19.627
22.8425
7.94438
-14.5454
-19.1181
-8.82844
15.0424
9.15383
-3.09387
-9.73345
-5.3495
7.26971
8.36522
0.845063
-3.25109
-3.28295
-6.59435
-10.0713
-7.88757
-4.66267
-2.411
-6.43656
-15.3976
-11.9795
-4.59245
7.13953
-6.17528
-27.0548
-23.7358
-9.33744
35.5175
-13.1388
-68.6589
-68.01
-12.5026
127.34
-59.7922
-136.925
-160.419
-36.4536
376.698
437.817
438.792
414.305
-21.8366
416.798
432.699
436.556
428.043
279.144
419.856
429.377
439.509
439.426
212.868
417.765
424.069
428.487
322.947
232.721
414.431
420.895
420.353
331.263
270.484
415.949
422.137
425.647
327.827
260.866
413.287
426.207
434.598
442.701
144.577
399.956
427.908
431.25
352.657
265.174
339.08
435.094
434.913
423.36
317.51
112.225
-57.5808
-94.3966
-153.119
-32.0368
42.4827
12.4601
-46.0286
-67.0447
-15.7976
22.3322
11.3436
-12.9914
-18.6729
-5.98293
12.3189
7.50792
-4.33857
-7.53127
-4.72775
5.84129
7.58567
0.479703
-3.2501
-2.95653
-0.239806
-6.67131
-16.8451
-8.1993
-3.86996
8.65552
-4.19233
-26.9163
-7.9306
-7.70304
28.3174
-20.76
-12.6704
77.8776
-43.3689
-128.451
-167.04
-28.9375
290.392
-134.792
-152.012
-30.7783
398.688
434.383
437.337
438.43
292.469
416.792
431.063
436.692
434.679
228.874
419.009
429.482
434.484
454.108
323.612
418.786
432.534
442.375
443.115
228.732
415.221
427.983
434.933
431.596
261.651
408.836
428.043
432.41
374.401
260.961
385.629
432.606
432.146
374.18
300.512
291.949
433.488
435.369
-167.984
-44.0292
67.8165
-43.5682
-123.429
-185.314
-18.0715
28.6256
-4.20694
-90.0188
-10.5551
15.8451
19.6272
-21.6358
-17.6491
-5.3425
9.56229
10.8253
-8.83883
-8.34012
-3.87944
6.77488
-3.19244
-3.9533
-2.59148
-3.1885
-7.78033
-18.1081
-8.00695
-3.58243
1.75505
-8.30878
-18.8518
-14.1092
-6.25334
10.9415
-10.7276
-35.5579
-32.6136
-10.7286
37.9177
-32.8291
-85.018
-81.1045
-19.779
133.331
-67.3593
-143.062
-157.104
-38.4016
335.789
439.82
440.527
-42.7132
394.224
434.879
436.678
430.694
264.499
406.135
430.849
435.07
447.703
252.418
408.135
430.354
439.274
359.859
167.191
403.072
430.046
433.85
442.409
263.381
385.411
433.845
432.589
404.327
290.169
338.834
435.517
435.969
341.098
-8.46789
94.3257
-110.99
-172.796
-158.303
-21.697
13.7136
-17.1606
-48.6406
-40.8538
-14.7473
5.92957
-6.28529
-32.0252
-27.1175
-7.08495
4.45029
-8.19071
-18.5854
-11.9898
-5.36651
2.47426
-6.04313
-17.7453
-5.6621
-2.64895
-11.1241
-7.09648
-11.0052
-7.78933
-4.18424
-2.96151
-7.39485
-12.7457
-10.9045
-5.26158
3.62514
-6.43244
-22.8543
-18.1539
-7.41631
18.6063
-8.91789
-38.2238
-44.2192
-14.561
54.2342
-30.3377
-108.094
-140.01
-22.6736
123.563
-45.3272
-91.0586
-160.942
-55.1446
283.747
436.563
-112.227
-149.12
-37.6089
352.952
436.176
438.634
393.618
362.13
436.473
439.298
402.763
318.752
351.211
435.954
437.552
423.213
282.709
436.888
-158.096
-24.8193
97.8088
-179.478
-15.0613
36.494
-32.9291
-91.234
-81.6645
-13.9436
5.31046
-8.67164
-28.0499
-22.3484
-7.6602
-0.289962
-8.10416
-17.1194
-12.5673
-4.89656
-1.98781
-6.47324
-12.7406
-10.1619
-4.62125
-5.349
-5.83349
-10.5411
-7.19796
-3.55725
-7.03293
-6.56508
-10.0501
-8.39459
-3.88712
-1.43998
-6.03011
-14.8068
-11.2555
-4.87534
6.48848
-5.9287
-23.5606
-21.3992
-7.31635
23.7581
1.55707
-46.1798
-34.4489
-11.7469
38.9332
-21.0798
-76.8958
-101.804
-16.3399
54.4537
-57.853
-129.539
-126.694
-17.3028
73.0482
-111.977
-138.692
-123.107
-25.8586
82.6631
-123.673
-162.508
-22.6055
71.491
-110.641
-156.549
-120.738
-12.3793
49.9459
-60.503
-138.555
-113.601
-14.2905
31.3468
-14.7598
-84.1333
-107.211
-10.1747
15.0269
-7.11377
-53.7974
-30.007
-7.35937
2.92202
-7.31494
-23.1806
-18.8264
-5.3066
-2.30171
-7.25727
-14.5257
-11.8244
-5.05379
-5.59701
-6.38418
-10.7574
-9.28889
-4.50831
-4.56162
-6.92582
-12.5743
-8.60717
-4.07116
1.84898
-4.91101
-19.6807
-11.503
-5.08583
5.5764
-5.86707
-27.3576
-12.0296
-6.44675
5.34148
-8.89487
-25.6254
-22.8944
-9.90511
7.16853
-14.1488
-35.3024
-27.8983
-11.0589
21.1299
-17.7124
-46.1492
-41.5934
-11.5237
26.85
-23.0141
-54.3847
-10.9788
7.87223
-20.1866
-50.0795
-25.6645
-9.90033
4.20543
-11.1135
-29.1081
-24.0773
-9.79498
6.17296
-8.65988
-28.5485
-26.8561
-6.54896
3.17935
-3.94159
-29.5846
-17.3542
-4.74998
-1.15658
-5.85349
-20.6542
-10.9428
-4.05974
-5.65793
-7.12269
-12.4787
-9.04033
-4.46185
-6.49916
-9.51596
-7.54514
-4.28808
-2.75194
-1.89843
-3.17503
-3.06331
-7.51237
-14.4032
-9.98336
-5.00542
-0.500631
-6.40826
-15.8879
-14.4512
-6.45782
-0.81481
-7.94033
-19.2011
-14.5329
-5.2572
3.13276
-7.79048
-22.4727
-18.673
-5.15762
6.71634
-9.56996
-20.0465
-4.85389
-0.831283
-12.2527
-24.4553
-12.8351
-4.87865
0.121683
-8.61985
-17.1649
-13.098
-5.10747
-3.26871
-8.94627
-16.684
-13.4093
-5.76378
-4.83004
-8.94995
-15.7965
-10.3471
-4.58258
-3.69796
-1.15603
-22.8358
-12.3101
-3.3126
-13.8083
-6.25483
-3.49453
-10.6394
-6.94481
-10.8077
-7.44041
-3.98136
-7.02254
-6.98333
-10.3835
-9.23956
-4.7155
-5.2774
-6.75932
-12.9056
-10.4629
-4.77178
-3.58486
-7.62124
-15.1006
-10.2837
-4.69691
-0.405098
-9.58602
-11.4183
-4.5949
-4.3705
-10.6968
-15.9182
-10.0823
-4.59003
-7.28563
-9.56477
-12.8843
-10.3931
-4.66643
-8.59522
-8.80529
-12.2004
-10.2337
-4.99768
-10.6678
-8.39743
-12.0215
-8.57555
-4.34206
-12.1832
-6.816
-11.8317
-8.36878
-4.17165
-9.52142
-9.68007
-5.62984
-3.10746
-12.6925
-8.98535
-14.2869
-8.7013
-4.18475
-8.38325
-4.57489
-10.6721
-11.3131
-9.21812
-8.18854
-4.9933
-4.13363
-0.333835
-7.30651
0.314858
-11.3655
-10.8901
-19.4401
-11.8553
-9.33431
-19.9544
-10.2368
-8.05974
-4.84984
-10.5484
-3.16863
-4.04346
-0.349797
-2.84992
-0.333743
-6.86249
10.6364
-1.61533
-6.37623
-2.83925
-10.3458
-10.855
-7.67346
-22.6269
-2.86866
-6.15863
-3.93341
-2.60878
-0.305087
-3.40846
-0.378673
-2.35412
-3.31633
-9.61846
-10.2079
-7.611
-6.19264
-4.0708
-3.50167
-0.379806
-7.23338
-7.51671
-10.8299
-11.2807
-9.3064
-8.23894
-5.10276
-4.29978
-0.263099
-13.4117
-7.28896
-8.56561
-6.89748
-7.51481
-10.6112
-7.29837
-9.41699
-11.0359
-9.28192
-10.584
-9.94996
-8.23585
-5.20866
-9.00425
-6.06504
-4.40711
-0.308044
-4.62464
-0.804822
-7.72815
-6.60071
-5.52347
-5.91503
-7.01672
-9.3271
-6.68678
-10.0263
-10.4671
-10.2749
-11.7653
-11.2365
-9.3932
-6.43456
-10.5428
-6.99275
-4.85631
-0.862277
-5.25009
-1.0129
-10.6132
-5.83232
-5.19107
-5.37382
-3.91957
-4.49456
-6.23344
-10.4875
-6.44643
-9.24326
-6.35673
-10.5365
-9.84527
-11.4631
-9.9761
-12.5425
-11.9332
-14.2245
-13.3704
-5.83187
-7.98531
-5.3728
-10.2568
-7.63165
-10.9581
-7.91726
-4.05021
-0.65032
-4.5354
-1.78017
-4.64885
-1.82925
-5.5413
-3.1903
0.617119
-2.49291
-3.26381
0.478788
1.58266
-11.5995
-7.64418
-19.7949
-6.85522
-11.5977
-12.3606
-23.0495
-10.2938
-20.2227
-11.5285
-13.9028
-12.4376
-24.1042
-14.4528
-5.29579
-5.82045
-3.95019
-9.21697
-7.37362
-6.46895
-4.29501
-0.728332
-3.07845
-0.66153
-4.80879
-2.03676
-3.51833
-1.58838
5.65231
-6.18631
-1.47719
2.77073
11.4719
1.21092
0.419856
-3.08073
-10.0298
-1.84758
-2.7151
-11.4075
-10.8679
-8.33912
-16.606
-12.5209
-11.5645
-2.96808
-6.03941
-4.31941
-20.7655
-5.29568
-8.95756
-5.93169
-0.510912
-3.37532
-0.673594
-4.02301
-1.59831
-4.49092
-2.0014
-2.44837
-2.43203
0.512035
-0.944039
-0.0507589
-1.3321
-9.53704
-2.73019
-6.68087
-4.37125
-9.3643
-4.15973
-7.24573
-8.67594
-7.34853
-7.02899
-12.5774
-11.6834
-9.70933
-9.31362
-4.51298
-6.305
-4.46124
-8.16766
-5.98517
-8.41952
-6.4711
-0.667648
-3.92577
-0.399558
-4.29187
-1.8452
-4.41808
-1.92034
0.234796
-0.994911
-0.568807
-0.777683
-6.2182
-2.98712
-5.45708
-1.87545
-5.48682
-6.76564
-8.21119
-8.73973
-7.03404
-7.90968
-4.52642
-7.7728
-6.04259
-7.50266
-5.51554
-0.380614
-3.97051
-1.73826
-4.33158
-0.871621
-0.836729
-0.735437
-2.15011
-0.362947
-1.69636
-5.21927
-0.820426
-4.83423
-6.71949
-7.41036
-6.38699
-6.38321
-7.02471
-5.09758
-5.58845
-4.2282
-4.08192
-0.801435
-3.47413
-0.681909
-2.72027
-0.231501
-0.694482
-5.68961
-6.42099
-6.18562
-5.58492
-3.81827
-3.37826
-0.349417
-8.08466
12.0595
-5.52373
-3.82549
-3.10598
-0.564224
-11.7613
-7.17806
-6.25124
-1.86305
-5.65208
-5.4422
-7.4686
-11.2899
-7.65847
-8.38379
-13.6012
-11.9287
-10.1624
-14.121
-15.4591
-13.5301
-8.1073
-5.32685
-3.10303
-4.7335
-8.748
-5.92913
-4.02136
-0.645706
-3.53101
-0.658617
-3.91213
-1.60018
-7.02362
-6.47352
-6.20807
-5.03072
-5.1329
-3.66655
-4.78747
-10.585
-7.6217
-9.72777
-8.00923
-12.2894
-7.66646
-11.7104
-10.3164
-11.7415
-11.779
-14.5465
-13.8389
-14.6724
-14.4235
-5.87112
-9.51837
-7.49575
-10.3932
-7.57075
-11.9199
-8.80043
-0.775678
-4.26094
-1.75272
-4.97409
-2.15135
-5.35662
-2.21489
-12.8646
-12.1913
-23.8624
-6.55471
-15.505
-4.19112
-32.9945
-15.2639
-25.2284
-15.6518
-20.3596
-19.7199
-34.3598
-24.3367
-2.52991
-12.729
-6.17847
-1.07592
-17.7073
-18.2357
-13.9679
-13.3552
-27.4539
-20.5272
-20.3695
0.966647
0.187772
0.218661
6.07099
3.26286
5.10204
3.66563
0.483859
5.25835
3.87521
7.8058
7.13701
-5.71683
-2.17465
-8.25683
-0.0994993
-15.1376
-6.78539
-10.6266
-9.58031
-14.8965
-7.22258
-3.98012
-6.56717
-4.6345
-2.37678
-3.49978
-0.664489
-3.4724
-1.56342
-2.42589
-0.60367
8.41023
10.1218
0.215189
-16.9703
10.6738
-2.1023
-17.0879
-6.96085
-3.81249
-3.35833
-4.42426
-0.927139
-1.95241
-0.674106
-1.15574
-0.349141
-0.790824
-0.367881
-12.4919
-10.9391
-11.6063
-13.7328
-14.2613
-11.249
-9.43108
-5.64326
-4.27023
-0.748805
-6.575
-2.22503
-10.8101
-10.3054
-6.60477
-7.56262
17.4222
-12.003
-14.6103
-11.897
-20.1227
-36.7304
-15.3589
-13.1265
-20.4043
-14.0138
-1.36297
-4.48369
-8.85837
-6.24383
-8.67506
-6.32155
-3.30909
-0.63602
-3.82974
-1.55901
-4.02123
-1.67677
-6.97634
-17.0279
-11.3893
-23.3964
-2.0799
-29.6194
-18.0358
-14.7785
-23.3235
-14.0889
-28.6337
-21.6534
-20.0089
-4.24778
-35.5381
-12.1982
-31.3604
-5.39433
-68.0361
-27.8263
-36.8668
-27.6342
-41.4612
-43.7584
-63.8408
-60.0249
-0.941826
-21.0451
3.30365
-0.186847
-40.59
-31.0949
-24.2888
-25.8265
-69.4554
-46.6121
-48.8052
-11.736
-1.48277
-16.186
2.57232
-20.8989
17.9397
-8.70223
-11.8592
-16.2432
-6.83068
-23.2996
-19.174
-11.1183
-11.6537
10.9952
5.20415
11.0661
14.821
16.2642
12.472
12.465
10.3793
-0.628207
14.2927
-4.06493
9.29904
2.61266
-7.32348
-3.6504
-3.75486
-8.92544
-9.96169
-3.2174
-4.6851
-1.63084
-1.52588
-1.27929
-6.77803
-3.75069
-3.59945
-2.82284
-0.807196
-1.16133
-0.425567
-3.09295
-1.41195
-2.71091
-1.33039
10.8437
11.259
10.9858
10.3024
-0.124113
9.59865
2.79254
9.83844
4.67787
-2.59941
-0.0993667
-2.6663
3.31864
-0.328152
-1.2571
-2.78891
-2.26932
-0.275015
-1.61855
-0.378208
-2.24849
-0.571013
-1.49955
-0.428217
-14.9676
-11.8225
-11.6418
-12.6606
-13.0205
-10.9019
-9.43088
-6.04812
-4.51615
-0.708784
-11.5565
-10.9103
-13.154
-11.6249
-10.0847
-10.5653
-11.885
-13.1082
-11.8064
-13.0749
-12.1793
-14.2253
-14.069
-12.596
-13.318
-11.463
-15.2671
-13.86
-9.69463
-7.21311
-9.87298
-6.3712
-10.8074
-7.82374
-4.21304
-1.70299
-4.5977
-0.792045
-4.40575
-1.74061
-24.1034
-4.15113
-34.0869
-13.6058
-24.1104
-11.2053
-40.3412
-17.8538
-30.8654
-28.4011
-27.5724
-24.8423
-42.199
-33.8006
-30.6685
-9.46935
-28.4017
-8.29872
-49.9791
-5.05684
-54.202
-22.8698
-32.011
-34.0605
-50.0003
-37.0408
-65.2811
-67.7561
-53.9808
-3.81004
-79.8226
-81.7907
-127.496
-61.3727
-136.586
-77.0369
-75.1025
-78.0413
-148.131
-144.679
-149.3
-164.201
-6.08258
-54.9491
-11.1705
-75.0402
-143.661
-90.7735
-64.9289
-69.7125
-156.4
-162.04
-163.455
-21.5657
2.79784
-24.2147
3.16643
-57.5971
67.7157
-39.6942
-28.3791
-27.6385
-77.3569
-110.755
-83.2863
-25.7536
17.2646
-6.97905
36.8662
-37.1384
17.3111
-5.10241
-20.0216
-12.366
-14.0154
-38.3156
-58.032
-12.371
-20.6533
12.5352
5.47735
10.785
15.6744
13.9057
12.8925
12.4896
5.11767
9.76754
5.51274
10.7031
5.05007
10.5369
6.93279
-2.55659
2.87605
-0.381128
-0.90026
-4.41101
1.87217
-1.34272
-2.92916
-0.510859
-1.79655
-6.02547
-4.75458
-3.52845
-3.45484
-1.22301
-1.64241
-0.508599
-3.89184
-1.80957
-2.74642
-1.30945
10.4687
11.4931
11.4623
5.08605
10.6513
5.77006
-0.0779906
2.92357
-0.858245
-1.67261
-2.10599
-2.10897
-0.382896
-2.09667
-0.542764
-12.2229
-14.2269
-14.271
-10.1222
-9.57732
-5.06535
-4.65572
-0.177263
-13.635
-11.7186
-17.2571
-11.7301
-10.3569
-11.2026
-11.8241
-13.018
-11.9376
-14.0679
-12.3641
-13.8918
-13.3382
-11.4349
-14.1091
-10.2292
-14.6012
-13.1147
-9.8794
-6.35061
-9.38998
-5.17885
-10.0376
-7.08455
-4.65489
-0.778919
-4.48916
-0.233299
-4.05133
-1.55472
-56.3971
-7.34457
-73.2104
-46.7839
-98.1235
-84.2618
-142.841
-48.3725
-81.0128
-107.692
-112.829
-109.801
-148.371
-185.959
-84.9234
-82.0105
-104.018
-2.11486
-81.7444
-127.572
-115.969
-130.185
-170.607
-175.933
-131.587
-142.998
-113.851
-79.9006
-134.627
-130.25
435.026
437.458
-185.297
-152.882
-177.326
-133.571
-146.591
436.788
-78.341
-148.066
-75.6762
-134.652
-63.7177
-48.9817
-6.66936
-35.5491
-8.6783
-31.3037
-5.7769
-28.2297
-1.14445
-93.8013
151.773
-114.98
337.621
430.655
351.436
426.745
-138.506
-84.7293
-138.881
436.262
437.34
433.38
436.422
-175.553
-150.047
-157.716
436.621
388.066
436.101
365.77
-78.754
-149.009
-63.4386
418.957
-44.0914
443.144
-7.87367
-31.0389
-5.57684
-29.4059
-0.118859
2.74609
-102.424
129.319
-122.787
350.849
426.982
341.949
424.184
-109.119
-139.561
433.348
435.744
432.614
435.96
-148.385
-158.661
-167.122
435.488
402.253
435.613
360.179
-61.4202
-151.998
-84.3946
428.557
406.08
-46.1148
-5.88628
-41.2367
-9.401
4.34333
-28.8899
1.69167
-140.825
-66.1202
-116.402
433.464
436.19
432.246
-170.396
-140.354
-189.225
435.719
385.5
-162.14
-94.0838
-162.442
-106.509
417.259
-48.582
-156.728
-79.2533
-10.3849
-52.9554
-12.6336
-29.6917
0.219084
-43.2018
-2.51098
-84.4497
-47.3927
-83.6143
-111.819
-69.5096
-86.6413
-183.39
-112.766
-160.805
-122.652
-157.927
-100.625
-159.161
43.9345
59.7464
51.1769
115.763
43.1626
85.2586
44.9488
-71.2411
40.8634
-51.6051
10.4121
-57.9498
-144.723
-50.2712
-89.3695
-75.0014
-118.528
-133.555
-95.719
-90.9245
-150.667
-153.029
-134.284
-144.808
-23.458
16.0561
-3.3703
4.95111
-30.9734
11.6037
-11.4177
-63.0891
-21.8114
-31.9243
-66.3678
-107.775
-37.6233
-56.3136
11.9651
15.5505
13.6059
11.9601
11.9791
7.46862
10.8687
6.35884
10.6755
5.0176
-0.58295
1.00564
-2.11661
2.50819
-0.505628
-2.59347
-4.11571
-3.46995
-0.750611
-1.54161
-1.24391
-3.07017
-1.4303
-1.59376
-0.526949
10.6603
11.5098
10.816
4.19385
2.87221
-0.0760367
0.0629473
-1.04536
-1.4275
-0.272598
-17.8378
-12.3256
-9.73413
-8.07577
-12.5048
-14.6651
-13.3393
-19.7877
-14.6378
-9.95445
-19.3684
-11.2453
-9.08197
-4.85451
-7.08614
-4.72312
-5.1196
-0.229043
-3.61413
-0.616051
-11.3757
-9.27759
-10.2616
-8.46169
-9.32516
-6.84488
-9.0827
-14.8895
-13.1085
-15.7713
-13.8952
-18.6538
-14.0709
-18.476
-11.4861
-16.7042
-14.6899
-18.0119
-14.2556
-19.2594
-16.347
-5.6977
-11.1938
-7.93206
-7.96812
-6.02332
-10.7495
-7.51476
-0.624638
-4.53192
-1.79282
-3.6122
-1.47103
-4.59754
-1.89194
-155.101
-108.159
-140.22
-128.365
-210.143
439.032
-175.45
-160.028
-189.327
-212.504
-178.299
-180.654
-138.028
-131.381
439.005
439.669
433.195
437.327
-175.961
-133.129
-142.812
439.475
-173.373
435.6
376.076
-73.1672
-136.08
-51.5541
-145.054
-36.1158
423.616
317.777
-3.27467
-23.4929
1.37939
-16.5618
2.35789
314.688
434.764
437.402
433.729
436.261
431.085
434.431
-145.631
436.632
461.601
434.375
406.185
433.565
415.904
-51.6234
425.512
407.215
314.888
419.326
345.222
1.82021
-25.1306
1.33801
317.235
19.1056
274.897
7.74268
436.823
432.714
434.535
428.312
433.117
427.478
431.723
402.869
436.085
344.339
433.256
413.521
432.478
442.531
452.165
348.923
439.723
311.248
445.079
246.799
1.39252
326.731
3.20603
244.429
2.07897
303.903
2.15359
433.883
432.022
435.407
426.781
431.242
426.274
431.042
404.248
434.776
392.259
432.478
434.614
430.858
475.406
320.226
412.34
323.618
426.007
298.704
372.247
292.965
3.76204
1.91301
296.713
294.371
5.71178
435.736
432.216
435.526
427.456
431.79
429.775
433.045
373.989
434.846
-162.372
431.332
416.015
430.685
377.372
-151.661
-67.2472
353.544
225.574
411.289
277.992
1.61258
-46.9118
-0.278832
238.845
5.78027
310.764
-6.73236
435.33
-67.0354
427.784
433.389
434.158
434.339
-163.384
-146.128
432.743
549.616
433.304
411.005
-75.4718
-113.907
-106.242
404.66
319.244
395.624
-79.9171
-3.85053
-73.576
-18.1165
300.802
-13.4071
-61.4685
-15.5022
-42.1836
-54.9179
431.589
434.548
-27.8692
-58.7354
-79.6707
-110.995
433.909
410.319
-69.0625
-115.804
-134.047
-142.059
-138.486
-86.2325
-135.28
-128.551
12.0797
15.5045
14.6409
4.02935
11.101
-1.70239
-0.61755
-3.85822
-2.71379
-1.11818
-0.473722
-0.916914
-0.457635
-1.4818
-0.484381
-7.66462
-7.28861
-5.35355
-3.61681
-12.8105
-22.2042
-5.50206
-17.2501
-21.2843
-9.0962
-18.0256
-14.042
-3.94314
-4.42767
-9.82763
-5.30594
-3.31883
-0.627125
-4.14166
-0.775944
-6.12307
-3.82624
-7.63339
-2.89193
-2.48788
-0.365388
0.451908
-22.2672
-13.2426
-24.4971
-5.07387
-17.8326
-4.84687
-26.5335
-11.3699
-24.0718
-17.539
-18.8111
-15.5348
-28.2647
-13.8425
-5.49447
-13.639
-6.67244
-12.041
-6.07693
-7.19713
-8.71042
-25.6269
-16.8157
-33.0171
-5.76382
-28.8485
-25.1425
-20.4446
-35.2054
-31.2611
-30.2181
-15.0571
-42.847
-37.2822
-34.5856
-56.2426
-25.4703
-65.5788
-43.6337
-123.927
-42.0214
-66.7613
-61.6355
-61.3543
-51.9338
-134.333
-107.719
-112.732
-148.12
-179.551
-76.6116
-169.352
-150.495
-210.527
-108.317
-187.214
-157.309
-187.284
-182.753
-220.892
-167.478
-214.114
439.069
440.006
-211.93
434.578
438.745
-162.154
439.629
-169.377
-211.513
-147.869
438.055
459.385
-43.6629
-140.58
-30.7205
-104.894
-25.3107
406.506
292.982
-2.94211
-9.72168
1.55115
-13.9146
1.41458
305.297
-3.09561
436.768
417.667
437.436
371.849
437.116
388.165
-30.085
433.184
314.814
353.249
273.25
382.101
154.325
3.12043
304.344
302.136
-5.82627
287.085
-0.438238
423.167
433.804
362.259
437.162
412.339
434.567
452.333
309.517
418.044
300.432
421.239
274.176
440.08
259.496
1.37637
335.032
6.8935
294.111
-1.99536
248.738
-75.5369
415.427
432.553
440.662
433.261
558.77
432.184
620.343
318.897
444.15
223.584
424.246
262.161
435.875
280.626
-0.477412
303.782
4.62907
149.579
276.649
-33.1822
430.785
430.904
417.656
433.246
467.914
432.792
430.634
274.416
365.854
305.544
430.135
10.8403
437.878
196.318
268.652
1.01444
197.867
-86.2346
377.634
431.615
443.084
432.421
443.988
432.409
428.687
275.819
424.057
296.894
454.033
232.267
385.038
228.25
5.20763
334.636
-2.38269
160.995
264.838
-1.30652
413.463
433.254
408.953
431.955
209.717
430.028
409.615
290.487
417.768
400.865
147.584
431.88
286.028
-24.1297
-11.64
273.453
0.623303
258.052
-2.40791
434.517
-21.7505
-55.6007
431.501
430.532
431.126
433.999
420.601
-67.0309
-113.129
430.266
409.633
433.152
-80.8616
-124.484
-111.161
432.253
285.407
-114.386
-85.7316
-19.7951
-80.8657
-16.8222
312.376
-5.22876
-70.9243
-19.9372
-53.9725
-18.8454
-37.4673
429.948
-15.6399
-51.0829
-118.73
-61.5802
-103.368
-110.628
-66.5192
-96.5284
-129.62
-128.037
-130.732
-114.545
-96.3625
-125.518
-132.223
-24.5417
11.1603
-10.4327
1.9799
-51.3422
29.9135
-38.5454
-97.9581
-39.5529
-58.5169
-60.0958
-106.346
-43.672
-70.9552
-3.36515
14.2654
-4.31518
36.886
-32.3914
18.8951
-29.009
-9.59072
-14.3993
-37.6954
-60.7741
-27.3493
-4.25857
15.0925
-3.26292
13.052
-22.9307
14.1999
-7.95523
-11.7385
-5.30794
-4.86686
-20.9615
-21.8487
-11.5331
-9.30696
17.1133
16.8561
16.3324
8.55279
11.693
-4.96856
12.2962
-4.69863
9.89993
-1.42126
-3.88926
-7.83968
-7.70317
-3.84633
-3.4402
-0.557648
-5.07242
-1.05344
-1.19378
-1.02772
-0.952483
-2.31275
-1.1209
-1.16752
-0.437792
11.4592
9.71332
-0.997141
-2.39929
-2.69545
-1.47035
-1.20216
-1.22719
-0.330492
-5.5973
-5.44966
-7.12004
-6.34255
-6.24774
-8.61295
-12.6814
-7.13268
-10.2259
-7.85999
-11.0357
-14.6775
-13.0268
-10.8147
-9.23678
-13.6412
-12.78
-8.63127
-6.05286
-8.37517
-5.35381
-9.73899
-7.06881
-3.98392
-1.68798
-4.6298
-0.213144
-4.5033
-1.86569
-17.0912
-5.0998
-21.6667
-7.05015
-12.2626
-7.47685
-14.9456
-16.1773
-23.2285
-17.7486
-16.0017
-15.8054
-20.2566
-19.3466
-25.3706
-6.6384
-19.6784
-10.7464
-29.5313
-19.223
-26.9333
-26.8723
-39.1879
-36.9443
-44.845
-138.629
-13.343
-53.2783
-52.2513
-134.411
-146.776
-118.347
-61.4268
-62.0082
-169.243
-163.589
-38.069
232.19
-142.601
114.369
-57.4092
313.739
433.284
-156.024
-147.068
-196.114
-80.5634
-143.248
437.142
440.061
-179.854
-203.421
-166.87
-181.187
-175.974
439.547
-41.1651
-120.545
-27.8701
-148.476
-56.7756
-17.7959
-2.83863
-15.258
-0.348241
-15.158
-3.04281
-4.73167
2.19722
-203.901
436.11
437.725
437.237
439.323
434.186
436.87
-149.016
437.407
403.288
438.553
421.213
436
421.029
-19.8361
406.224
290.99
430.557
-4.56398
427.423
215.318
3.10016
293.027
1.76632
1.66158
3.70793
270.464
1.26498
558.882
435.734
427.721
436.03
358.31
435.594
364.454
268.186
415.817
254.513
416.547
277.051
444.276
12.8156
0.94968
319.205
308.776
4.46612
228.524
-115.513
384.78
437.421
419.573
435.744
440.873
429.824
492.715
202.909
439.705
265.355
438.208
135.891
402.295
165.902
-0.051648
356.107
-25.741
208.293
327.439
584.23
431.213
593.994
427.326
438.239
421.878
374.284
224.562
432.919
212.182
340.71
165.121
327.64
269.931
-22.5695
232.869
-30.3266
225.051
271.769
536.195
417.414
413.763
417.2
411.12
415.519
412.552
414.953
429.473
422.536
429.913
419.211
422.209
419.902
422.813
472.57
431.745
492.417
421.036
374.601
422.181
350.175
181.36
451.934
71.1306
330.071
268.553
276.278
238.847
162.126
269.33
497.859
238.924
767.888
454.211
433.893
212.475
425.273
394.545
429.58
432.895
211.303
395.338
197.045
264.883
186.517
441.673
237.701
374.732
-1.43857
211.253
725.965
266.879
392.474
429.088
410.901
431.298
551.293
429.571
403.392
182.526
429.363
326.735
439.191
234.334
426.976
211.521
-27.593
284.093
-1.02911
316.048
235.604
-2.17972
430.626
432.984
433.943
425.953
429.599
431.736
432.992
440.77
433.127
429.113
444.35
432.016
356.084
302.147
-81.5025
424.176
236.13
341.905
295.878
-7.42326
-67.5806
-22.007
261.006
-25.8577
297.997
-21.8762
423.076
186.596
29.1879
337.201
420.846
200.846
-35.1511
434.272
-32.0239
-51.7072
433.782
434.733
-45.8518
-44.6815
-111.605
-65.4451
-103.07
433.325
324.512
-49.5667
-115.172
-88.77
-115.602
-126.738
388.287
300.127
-127.81
-119.513
-21.508
-83.5363
-29.8934
-24.1307
-80.8486
-31.2208
-55.0069
53.9991
-27.6691
-42.3082
23.8319
-37.9558
-106.186
-107.096
-56.9837
-132.256
-51.1635
-118.069
19.1946
-20.3504
25.4151
-25.3403
13.8774
-6.01156
-21.36
-25.0472
-39.8195
-87.4516
-21.0256
-31.922
-10.9361
11.1732
-5.19402
12.2249
-0.249542
10.6618
1.15548
-17.9441
-8.51004
-9.39249
-12.0245
-16.1966
-7.26868
-10.861
14.2474
8.56866
11.3783
15.2602
13.4304
10.111
10.1317
-0.214897
8.75729
-0.164083
8.8819
2.22472
8.63204
2.87785
-6.33697
-2.56516
-3.30747
-3.49412
-5.8823
0.317403
-2.84062
-3.84345
-2.06099
-1.99072
-6.38626
-5.30886
-2.91684
-3.02522
-1.78514
-1.78124
-0.554887
-4.34727
-1.91298
-2.60406
-0.661125
10.8073
7.16847
9.63059
-0.136446
8.89896
2.50184
-2.36713
1.16122
-2.27033
-1.73361
-2.32597
-2.89549
-0.42953
-2.63915
-0.396055
-9.27286
-10.161
-9.00519
-8.35515
-5.67647
-4.78367
-0.224632
-7.09525
-5.65336
-5.96064
-13.575
-6.88822
-5.22046
-5.67795
-9.93925
-6.99226
-10.1
-6.8472
-9.35075
-6.63854
-9.71453
-9.30608
-13.5237
-12.7864
-10.4545
-9.82915
-13.3749
-12.8362
-5.4972
-10.7566
-7.99386
-8.62292
-6.15775
-11.0755
-8.291
-0.234746
-4.84465
-1.96558
-4.57208
-0.743632
-4.95187
-1.99291
-151.33
437.827
439.818
-72.5785
-157.208
439.715
439.514
-168.455
439.358
-182.175
-157.104
438.975
431.922
-59.3684
-18.638
-128.151
-63.0373
436.102
-37.8907
-4.24084
-7.90089
2.38279
-31.7522
-7.03183
-26.1707
0.422945
439.457