/*--------------------------------*- C++ -*----------------------------------*\
| =========                 |                                                 |
| \\      /  F ield         | OpenFOAM: The Open Source CFD Toolbox           |
|  \\    /   O peration     | Version:  4.0                                   |
|   \\  /    A nd           | Web:      www.OpenFOAM.org                      |
|    \\/     M anipulation  |                                                 |
\*---------------------------------------------------------------------------*/
FoamFile
{
    version     2.0;
    format      ascii;
    class       volScalarField;
    location    "72";
    object      p;
}
// * * * * * * * * * * * * * * * * * * * * * * * * * * * * * * * * * * * * * //

dimensions      [0 2 -2 0 0 0 0];

internalField   nonuniform List<scalar> 
146404
(
-8.03039
-3.79531
-11.4848
-7.25266
-13.1097
-8.12996
-4.12114
-3.52957
-6.97573
-22.1785
-2.45093
-7.97422
-4.59129
-11.423
-6.94074
-3.53944
-7.9854
-6.7317
-4.28703
-10.5803
-8.52065
-11.7056
-8.49383
-4.15481
-6.4694
-8.40583
-12.1579
-10.3122
-4.58536
-2.39219
-8.88114
-19.3631
-13.6245
-4.24125
-1.54116
-7.79279
-16.4594
-11.2519
-4.35057
3.78985
-1.11886
-21.2071
-4.22388
2.72999
-6.392
-16.249
-11.4282
-4.63449
0.871962
-4.7482
-11.1254
-10.0505
-4.96738
-0.25595
-3.3582
-9.21701
-8.46997
-4.07961
-2.19667
-2.60175
-8.09138
-6.48796
-3.50682
-4.09198
-8.39441
-3.12937
-3.23962
-9.03831
-17.7137
-11.9195
-5.59388
1.63695
-9.53664
-24.5005
-18.8924
-6.68024
4.18625
-12.5217
-33.6449
-25.5165
-7.68537
6.73782
-8.57789
-26.6461
-19.488
-9.13855
14.1898
-7.22116
-35.5875
-9.37511
11.5267
-8.54408
-27.8528
-26.3806
-10.4396
14.1402
-6.54571
-27.2805
-24.576
-10.8237
8.67763
-2.13721
-16.6362
-16.4265
-7.51391
6.68202
-3.76917
-13.6592
-8.81264
-4.71988
7.45582
-4.5025
-10.7135
-1.86907
4.03279
-6.1663
-3.50461
-1.94118
-9.16784
-11.8449
-15.735
-10.082
-3.85428
-2.30159
-10.8697
-23.4225
-12.381
-5.04625
6.2458
-2.78877
-29.2181
-11.8792
-8.68733
12.4842
-12.6046
-34.0315
-29.281
-10.553
22.0823
-32.6313
-55.0117
-52.1629
-10.4398
36.5996
-33.9634
-71.0297
-45.6431
-10.5249
48.4588
1.00633
-83.4162
-10.9116
38.3707
-24.4818
-74.0956
-56.6271
-15.1572
28.6467
-20.6745
-56.8329
-56.1605
-17.4516
24.7515
-5.19134
-33.8998
-38.423
-14.7647
19.9023
4.13463
-26.77
-12.9655
-9.42253
12.2652
4.01501
-11.9874
-9.72544
-5.50752
6.57842
3.40095
-4.48606
-5.46254
-3.39138
4.19145
-1.11036
-3.08273
-2.64839
-10.9861
-11.9793
-14.32
-10.4213
-4.44523
-4.81372
-13.1766
-25.3785
-14.6128
-4.75296
1.53585
-14.7576
-32.9794
-23.1068
-8.5407
23.7024
-12.2393
-58.0721
-27.84
-11.9663
55.5148
-24.8851
-92.2797
-108.239
-16.2304
98.7219
-87.8688
-158.596
-130.976
-19.3585
115.717
-103.546
-177.623
-132.79
-22.9665
146.007
-79.3772
-145.369
-21.5546
120.127
-102.051
-164.619
-159.465
-38.1474
95.7672
-82.7311
-127.601
-167.018
-48.1461
61.7942
-6.08753
-89.8343
-157.502
-35.4157
38.5579
14.4692
-44.1971
-52.4378
-20.033
20.5548
4.92516
-18.6041
-21.2318
-9.59007
12.8711
3.69316
-8.49596
-10.0673
-4.74025
6.49017
5.00416
-2.76676
-5.46179
-3.31403
-13.6925
-11.9104
-14.7095
-9.0472
-4.17375
-5.84098
-14.127
-19.1767
-14.5402
-4.98977
-1.2715
-13.8831
-39.1646
-22.5548
-6.86197
12.7657
-29.0747
-93.2409
-39.992
-9.11074
57.4977
-100.436
-184.008
-105.821
-14.5435
139.042
-93.8981
-149.511
-170.455
-15.8765
308.466
434.23
-117.978
-11.231
380.603
432.844
434.003
408.918
384.109
429.74
433.5
427.511
305.734
370.869
429.186
432.54
420.704
303.382
427.643
-141.323
-37.4092
177.084
-156.518
-64.2389
72.1887
-24.9026
-80.8893
-131.57
-37.2875
30.8456
1.85299
-40.5083
-52.0095
-16.5847
18.9706
9.79814
-15.5159
-22.6952
-7.60541
12.0977
4.22438
-6.35854
-7.85925
-4.76569
4.93932
4.39788
-3.31574
-3.44307
-2.47811
-5.27195
-10.992
-21.3588
-7.31453
-3.1915
-2.16138
-13.7462
-25.6671
-14.7484
-4.87117
6.05234
-16.6549
-44.4908
-28.6125
-9.03754
37.5305
-76.8647
-131.517
-59.63
-11.5717
127.249
-116.873
-225.647
-122.393
-11.8113
372.675
435.752
436.69
-8.1261
411.427
429.188
432.764
404.278
303.241
412.692
425.708
430.324
436.061
330.861
411.416
424.258
430.468
423.152
282.92
407.68
423.981
428.768
414.696
331.795
389.206
424.526
429.65
397.63
294.012
346.232
430.343
431.429
422.576
-50.7758
174.881
-52.9216
-94.6568
-146.066
-68.5952
56.0705
-10.7017
-76.7653
-110.899
-24.7372
29.8974
10.2817
-25.735
-29.5516
-10.7282
17.1037
7.72241
-13.7673
-11.9035
-4.84179
10.9047
5.50376
-10.4492
-2.35725
-2.5431
-4.17707
-9.17057
-18.0419
-10.1885
-4.63258
3.37447
-4.2443
-27.3692
-13.1977
-6.85314
24.3158
-34.9061
-11.9177
81.918
-82.3636
-168.425
-89.7918
-13.9347
302.586
-208.253
-108.029
-5.52283
412.411
429.993
434.784
390.359
274.261
415.719
426.404
433.889
377.765
263.63
413.8
422.698
432.608
429.514
331.019
411.983
419.999
428.581
429.956
211.438
411.47
421.126
430.473
452.77
312.752
407.362
422.161
429.995
349.565
296.523
385.732
425.071
426.337
427.78
313.01
304.074
427.399
431.17
-141.808
-53.1485
97.3813
-17.1181
-102.249
-155.297
-28.9873
42.1669
80.5146
-122.227
-14.3402
20.3295
12.3411
-20.7996
-14.5586
-6.04757
10.5009
3.84859
-8.78302
-6.39313
-3.94313
5.07406
-4.74633
-3.70151
-2.30065
-7.84564
-10.885
-8.40735
-4.6232
-2.23402
-8.66279
-19.468
-12.9725
-4.44399
5.16049
-13.3706
-36.518
-24.8685
-8.03071
28.4121
-31.0971
-63.9891
-47.1596
-10.9809
95.038
-77.1705
-169.929
-104.574
-27.0775
379.121
435.59
436.473
436.841
-12.7246
415.735
428.832
433.628
386.681
260.578
415.615
424.511
432.331
457.303
173.074
413.252
419.627
423.733
292.861
233.151
406.976
415.635
412.74
334.397
256.891
409.14
416.844
418.753
289.578
225.23
410.206
420.572
429.06
438.297
173.403
397.843
421.745
426.623
411.037
256.59
348.068
429.43
431.972
384.678
312.74
132.531
-48.0214
-100.669
-157.715
-57.4841
32.5527
4.05009
-49.3514
-45.8005
-15.5891
17.9593
3.359
-14.4005
-18.2847
-8.10134
10.9433
5.31745
-6.18737
-9.8442
-5.01189
3.31846
4.72506
-1.92173
-4.30014
-3.29692
-14.4622
-7.62184
-10.6094
-8.44389
-4.43386
-1.8916
-8.54642
-19.0731
-13.0496
-4.56647
5.66554
-13.4688
-36.542
-25.2985
-8.37966
29.6015
-35.7135
-74.0287
-52.8245
-10.9558
115.452
-74.1168
-165.414
-119.176
-25.2
384.513
436.446
436.134
419.504
416.339
429.592
434.58
440.411
338.35
416.363
424.773
440.75
447.678
201.129
411.141
419.651
417.5
329.355
276.72
406.985
414.948
403.24
336.673
264.839
405.011
416.512
411.364
332.004
260.551
411.236
420.906
426.962
453.491
207.059
400.77
422.322
427.556
440.395
261.559
352.969
428.729
430.678
414.199
315.893
141.316
-55.2159
-112.278
-154.628
-49.4415
29.0184
-3.47869
-45.0477
-47.0337
-16.0865
18.2013
3.76404
-16.7974
-19.7161
-8.64764
10.6754
5.24339
-6.52512
-10.6573
-5.18699
2.98381
4.40475
-2.2905
-4.86673
-3.62219
-7.44987
-10.38
-7.81371
-4.54747
-3.62772
-7.35143
-15.3157
-11.3905
-4.36426
5.23051
-7.01947
-26.3748
-21.3221
-7.85379
32.3627
-14.4306
-59.9146
-55.3526
-12.0002
124.64
-53.6155
-157.403
-156.867
-25.7397
373.966
435.627
436.602
412.751
-16.3237
414.375
430.48
434.387
425.863
277.84
417.53
427.119
437.321
437.481
201.852
415.484
421.964
426.239
321.679
231.457
412.302
418.709
416.693
329.96
269.596
413.336
419.562
423.043
328.804
260.096
410.584
423.596
432.011
438.722
142.888
397.161
425.299
428.701
350.687
264.268
336.114
432.419
432.507
421.008
317.727
108.143
-52.8875
-109.072
-155.389
-21.7019
37.5285
5.07722
-51.7969
-65.6205
-12.6899
17.8803
6.72856
-16.2087
-19.6357
-5.97887
8.22019
3.59062
-7.2199
-8.73567
-4.88595
1.78438
3.75015
-2.58634
-4.97918
-3.48684
-1.67496
-7.44313
-16.9173
-8.01899
-3.71647
6.52924
-5.23857
-26.5343
-7.50825
-6.56064
25.1987
-18.2389
-9.6995
73.2213
-50.0997
-141.102
-153.836
-19.4096
285.78
-144.536
-149.047
-20.1219
395.82
432.096
435.058
436.542
291.977
414.399
428.718
434.316
431.816
226.521
416.663
427.175
432.033
448.937
322.598
416.392
430.444
437.111
439.482
228.496
412.62
425.414
432.079
428.868
259.349
406.094
425.43
429.805
372.916
259.163
382.546
429.944
429.507
371.645
299.316
288.022
430.582
432.794
-157.415
-22.0667
62.4106
-51.3217
-128.922
-198.481
-14.4525
24.6393
-1.52959
-68.9407
-9.49899
12.084
13.9654
-24.8596
-18.8872
-5.4668
5.88488
6.52259
-11.5343
-9.71692
-4.16091
2.86746
-6.14337
-5.38098
-3.22315
-4.98895
-9.61459
-19.174
-8.24719
-3.51096
-0.540283
-10.4175
-19.9491
-13.9199
-5.74956
7.41611
-12.9119
-35.8939
-30.2155
-8.50205
32.9221
-38.8861
-90.2327
-70.1486
-12.8045
125.681
-74.1262
-146.479
-157.663
-27.1673
331.155
437.574
438.077
-25.9533
391.694
432.46
434.232
428.453
263.56
403.919
428.44
432.685
445.482
251.904
405.793
427.955
436.786
357.077
168.332
400.472
427.549
431.303
439.901
262.866
382.357
431.273
430.073
401.805
289.086
334.872
432.977
433.558
339.279
-9.66783
89.3037
-107.034
-196.646
-156.034
-15.4281
8.28178
-17.9417
-50.1454
-38.4497
-12.0128
2.54602
-8.98035
-34.7102
-28.0582
-7.34882
1.29136
-10.5622
-20.4927
-12.9637
-5.443
-0.488667
-7.71605
-19.365
-7.22683
-3.38352
-13.0187
-8.88357
-12.1859
-8.28916
-4.25853
-5.17874
-9.34172
-13.9526
-11.0684
-5.00026
0.73702
-8.78295
-23.6333
-17.1332
-5.91398
14.8851
-12.1894
-39.305
-39.2406
-10.7748
49.1382
-39.6744
-113.97
-104.208
-15.9167
119.495
-74.3021
-125.898
-173.399
-39.406
280.82
434.024
-129.033
-135.736
-28.071
351.928
433.587
436.215
392.123
359.906
434.094
436.772
400.917
317.713
348.718
433.466
434.998
420.965
279.359
433.599
-144.222
-20.0421
92.8289
-191.457
-15.144
31.5772
-37.5751
-91.9938
-70.6248
-11.5579
2.05121
-10.7392
-29.9826
-20.6811
-6.58375
-3.06766
-10.5383
-18.5147
-12.8972
-4.95125
-4.7218
-8.96218
-14.5267
-11.0169
-4.87647
-8.01573
-8.14677
-12.3572
-8.45055
-4.12275
-9.14543
-8.45033
-11.2727
-8.80534
-3.90663
-3.76162
-8.18646
-15.8762
-11.0726
-4.44903
3.60816
-8.41435
-24.615
-20.0487
-6.71219
20.4641
-2.76209
-48.05
-29.6675
-9.83814
35.6893
-25.2382
-91.2616
-71.7531
-12.8739
51.7975
-66.9987
-151.879
-99.8393
-13.8691
73.7877
-118.876
-164.048
-101.95
-22.0792
81.3416
-124.513
-147.077
-18.0758
71.2131
-110.459
-176.76
-108.877
-8.40671
45.6908
-64.723
-140.988
-101.468
-12.2057
27.5774
-17.6477
-87.7693
-77.9539
-10.0894
11.6732
-11.2244
-55.3659
-28.1548
-6.89507
0.0318296
-9.68095
-24.6098
-18.5183
-5.1871
-4.89004
-9.63417
-16.0109
-12.3434
-5.31161
-8.12549
-8.75824
-12.4976
-10.2743
-4.96542
-6.66121
-8.77688
-13.653
-8.98642
-4.03994
-0.287127
-7.03621
-20.7428
-11.6156
-4.78478
3.43342
-7.3756
-28.1838
-11.7233
-5.90197
3.43302
-9.8258
-27.2395
-21.6807
-7.86981
4.92556
-13.9813
-38.345
-27.1182
-8.81199
18.9976
-18.8289
-50.7597
-41.6605
-9.60079
25.289
-26.3077
-49.4301
-9.38915
5.94781
-22.4726
-53.269
-26.8818
-8.29615
2.31316
-12.0267
-30.3879
-23.2617
-8.31155
4.08748
-10.317
-29.0469
-25.2512
-6.22963
1.01712
-5.40301
-29.9551
-16.9454
-4.57196
-3.36377
-8.11338
-22.023
-11.304
-4.16418
-7.95523
-9.26853
-14.0254
-9.84554
-4.82563
-8.73429
-11.2324
-8.57424
-4.88201
-4.53073
-2.34231
-3.23636
-4.67156
-8.76903
-15.1876
-10.0142
-4.76431
-2.01185
-7.76648
-17.0535
-13.8651
-5.90869
-2.18237
-8.93279
-20.5721
-13.5867
-4.54968
1.62672
-8.90759
-24.044
-18.2747
-4.78627
5.35202
-11.0301
-20.6226
-4.53179
-2.15571
-13.3438
-25.6323
-12.3925
-4.57277
-1.38128
-9.89987
-17.8629
-12.4242
-4.63212
-4.79735
-10.2701
-17.3988
-13.1337
-5.49884
-6.4149
-10.1361
-16.4093
-10.4918
-4.54404
-5.50289
-2.22155
-23.4025
-12.7352
-3.50308
-15.3006
-7.0852
-3.97956
-12.1105
-8.20398
-11.6124
-7.7851
-4.05758
-8.40762
-8.21581
-11.2734
-9.47186
-4.74233
-6.55563
-7.99076
-13.752
-10.6666
-4.73528
-4.80626
-8.74224
-15.955
-10.5237
-4.60005
-1.60525
-10.6009
-11.8275
-4.61569
-5.59071
-11.7193
-16.6072
-10.5268
-4.62442
-8.5306
-10.6682
-13.5994
-10.6701
-4.66091
-9.92537
-9.98504
-12.9971
-10.4585
-5.08697
-12.0683
-9.60191
-12.747
-8.90038
-4.44364
-13.3774
-7.91438
-12.6755
-8.82857
-4.33162
-10.6845
-10.6248
-6.07529
-3.33904
-13.8459
-10.0138
-15.006
-9.12969
-4.30126
-8.7974
-4.73833
-11.3925
-11.9421
-9.40855
-8.32975
-5.02618
-4.13524
-0.225459
-8.64628
-0.677749
-12.06
-11.6593
-19.9411
-12.4585
-9.53094
-20.4053
-10.4137
-8.2038
-4.93191
-10.6072
-3.30127
-4.12351
-0.321648
-2.96806
-0.384443
-8.20966
9.62793
-2.92324
-6.73234
-4.10227
-11.2858
-11.7104
-8.18724
-22.1901
-2.99114
-6.61365
-4.06186
-2.69742
-0.320333
-3.43394
-0.315492
-3.65947
-4.55569
-10.5547
-11.0702
-8.14229
-6.66168
-4.21538
-3.56102
-0.353502
-8.17296
-8.40967
-11.3018
-11.6271
-9.2086
-8.08683
-4.86233
-4.05022
-0.269723
-14.4682
-8.25725
-9.7983
-8.00616
-8.42742
-11.1003
-8.32533
-10.0738
-11.3968
-9.19616
-10.9889
-9.9021
-8.09576
-4.9763
-8.81224
-5.83731
-4.16362
-0.255239
-4.40716
-0.690581
-9.01166
-7.77298
-6.90793
-7.19749
-8.1087
-10.0464
-7.90262
-10.8193
-10.9457
-10.2274
-12.2612
-11.1749
-9.19967
-6.19841
-10.266
-6.7418
-4.64173
-0.766862
-4.99796
-0.917305
-11.9512
-7.03175
-6.5507
-6.71392
-5.31547
-5.86584
-7.37214
-11.2166
-7.78286
-10.2065
-7.73627
-11.4722
-9.93818
-12.0732
-10.1868
-13.0428
-12.0908
-14.6914
-13.5532
-5.77676
-8.09489
-5.36405
-10.0513
-7.44634
-10.7656
-7.72653
-4.00755
-0.593488
-4.35374
-1.68405
-4.46484
-1.74096
-6.72805
-4.5282
-0.446419
-3.90757
-4.6407
-0.950893
0.220403
-12.3472
-8.41661
-20.2958
-8.04843
-12.475
-13.254
-23.583
-10.4913
-20.6585
-11.6894
-14.4067
-12.615
-24.5202
-14.4736
-5.34685
-6.06029
-4.06529
-9.11004
-7.24075
-6.59123
-4.36693
-0.791402
-3.23616
-0.652001
-4.62508
-1.96262
-3.47193
-1.56413
4.66894
-7.58784
-2.80671
1.35826
10.1011
-0.211052
-0.984977
-4.37261
-11.0059
-2.32336
-4.11442
-12.3484
-11.6913
-8.86275
-16.5834
-13.3248
-11.9787
-3.15511
-6.47545
-4.44513
-20.5389
-5.44291
-9.30857
-6.06056
-0.555808
-3.4399
-0.617499
-4.02651
-1.5876
-4.44314
-1.94539
-3.75238
-3.81501
-0.901973
-2.27818
-1.57269
-2.74818
-10.498
-4.06532
-7.72743
-5.62137
-10.393
-5.43221
-8.32667
-9.21608
-8.30987
-7.62534
-13.3046
-12.2767
-10.5479
-9.94531
-4.62174
-6.81495
-4.63967
-8.54765
-6.16807
-8.7798
-6.68741
-0.625293
-4.04923
-0.356244
-4.32827
-1.83167
-4.45788
-1.89895
-1.41957
-2.60752
-2.41007
-2.51067
-7.32012
-4.42437
-6.72983
-3.4151
-6.78746
-7.40124
-9.23803
-9.53063
-8.16876
-8.70437
-4.72686
-8.25848
-6.37704
-8.12362
-5.78939
-0.339339
-4.01237
-1.67992
-4.46112
-0.831526
-2.72256
-2.49105
-4.2748
-2.1705
-3.26448
-6.51145
-2.533
-6.16536
-7.85782
-8.19547
-7.53873
-7.25841
-7.66564
-5.37921
-6.31529
-4.57388
-4.23116
-0.770574
-3.67035
-0.639804
-4.87881
-2.05118
-2.40835
-6.95184
-7.61752
-7.07514
-6.41954
-4.1787
-3.65234
-0.340967
-8.53977
11.7666
-5.29615
-3.66076
-3.00098
-0.536744
-12.7685
-8.10587
-6.83049
-2.62671
-6.54645
-6.35117
-8.35808
-11.7928
-10.5234
-9.31157
-14.1259
-12.2306
-10.0519
-13.7754
-15.5204
-13.319
-7.94082
-5.0772
-2.73523
-4.54666
-8.4119
-5.6458
-3.82239
-0.557546
-3.40982
-0.627983
-3.66304
-1.4631
-8.01949
-7.6918
-7.35688
-6.13083
-6.17371
-4.98707
-6.01121
-11.1239
-8.59715
-10.3959
-8.9842
-12.8952
-8.73546
-12.3255
-10.2103
-12.0043
-11.7085
-14.6705
-13.6115
-14.7076
-14.0221
-5.59297
-9.19157
-7.19907
-9.92711
-7.19786
-11.2817
-8.18413
-0.709676
-4.04154
-1.63455
-4.59951
-1.96951
-4.86038
-1.97694
-13.8905
-13.138
-24.3996
-7.97964
-16.8482
-5.8971
-33.5427
-15.2374
-25.6234
-15.5789
-20.7771
-19.4239
-34.4924
-23.4796
-4.0115
-13.6514
-7.2583
-2.61024
-18.6149
-17.96
-14.7806
-13.669
-26.4233
-21.2576
-20.4883
-0.982121
-1.96045
-1.65907
3.68962
1.22111
2.66927
1.41221
-1.43855
2.60168
1.60505
4.49366
4.8587
-6.95261
-3.49426
-9.19532
-0.703679
-15.6555
-7.72074
-11.605
-10.5427
-15.6501
-8.82637
-4.41879
-7.46077
-5.19834
-4.15949
-4.28735
-0.705048
-3.66953
-1.65684
-2.88657
-0.642806
4.73702
7.95436
1.28988
-17.47
4.31159
-6.95281
-17.7182
-9.01663
-8.14258
-5.41116
-6.81592
-1.80438
-3.7373
-1.75483
-1.75276
-0.479144
-1.5363
-0.218159
-12.5088
-10.851
-11.4571
-13.538
-14.0795
-11.1348
-9.29753
-5.59559
-4.2529
-0.712663
-6.95062
-2.2231
-10.8463
-10.2206
-6.77117
-7.51814
18.7154
-11.7604
-14.3248
-11.3936
-19.6811
-36.9723
-15.1291
-12.9647
-20.0104
-13.758
-1.17566
-4.33441
-8.68437
-6.10863
-8.41789
-6.13966
-3.26181
-0.585666
-3.73585
-1.49718
-3.93325
-1.64248
-8.09093
-17.4105
-10.6512
-22.9055
-4.19488
-29.5366
-18.095
-14.3319
-22.9076
-13.7759
-28.1482
-20.4604
-21.8948
-6.06246
-36.0709
-13.9147
-33.4917
-8.74941
-67.1567
-26.7339
-36.8954
-26.4039
-41.1432
-41.1398
-61.9363
-52.2186
-2.78932
-21.9454
-1.24636
-2.47893
-40.2265
-29.6228
-25.0403
-25.6661
-57.7146
-46.5683
-46.1903
-12.4438
0.0899002
-16.6978
2.41061
-20.6943
9.8717
-14.0269
-12.7502
-16.8777
-8.93113
-23.2438
-20.3459
-15.6217
-13.1036
9.82776
0.0798961
5.3293
9.50735
10.4731
6.89523
6.66364
4.13798
-5.73026
7.05238
-9.33194
3.25332
-2.90054
-9.54011
-7.87974
-6.06038
-13.057
-11.9128
-7.31361
-7.61343
-2.67057
-3.40505
-2.36335
-8.16756
-4.83947
-5.48241
-4.31741
-0.999665
-1.83832
-0.517956
-3.51043
-1.53713
-3.2716
-1.55193
5.06973
5.46134
5.12563
4.3871
-5.00963
3.75057
-2.3523
3.99684
-0.391663
-5.03472
-4.58573
-5.63654
-1.4478
-3.57576
-2.37545
-5.16843
-3.61654
-3.15368
-3.18945
-0.390968
-3.0999
-0.689311
-2.60536
-0.396247
-14.9636
-11.7729
-11.5731
-12.5724
-12.9291
-10.8325
-9.37138
-6.03121
-4.52773
-0.628861
-11.5688
-10.8377
-13.1547
-11.5768
-10.105
-10.5171
-11.7575
-12.9456
-11.7348
-12.9556
-12.0628
-14.0581
-13.9008
-12.4713
-13.2138
-11.3601
-15.0997
-13.6891
-9.52634
-7.09819
-9.78094
-6.31287
-10.5351
-7.63525
-4.14591
-1.64225
-4.59644
-0.724964
-4.30413
-1.66868
-23.5135
-6.80325
-33.8869
-12.9294
-23.5025
-9.94809
-39.3515
-17.4575
-30.2715
-26.8755
-27.1927
-24.5089
-41.7636
-33.0979
-30.456
-11.1503
-27.7071
-6.57327
-49.1487
-9.07374
-52.6553
-21.5581
-30.149
-30.561
-49.4198
-36.2505
-61.0163
-59.5325
-57.2116
-6.88277
-78.6643
-101.194
-145.27
-74.3742
-168.94
-69.676
-72.3787
-66.6953
-155.158
-132.677
-176.029
-147.926
-8.33369
-53.4538
-41.8372
-78.0959
-148.371
-72.4928
-63.0015
-65.3302
-140.615
-167.107
-160.841
-20.8025
2.3513
-23.3162
-1.44515
-61.0233
52.7836
-38.4965
-27.5054
-27.5349
-74.2923
-116.931
-77.8052
-25.0517
8.87099
-12.8303
23.1021
-45.6498
9.37593
-11.7736
-20.9583
-16.6201
-15.5764
-41.9156
-56.4104
-17.0233
-22.7079
6.4497
-0.606167
4.78423
9.28571
7.58821
6.57493
6.25052
-0.367135
3.93702
0.288483
4.56264
-0.689593
4.58925
1.32037
-6.00062
-1.79924
-3.82456
-5.88579
-7.84032
-3.3195
-5.18192
-4.60463
-3.37893
-3.42702
-8.20395
-6.18491
-6.06434
-5.25895
-1.62419
-2.68625
-0.647298
-4.49131
-2.02406
-3.59373
-1.66956
4.49049
5.13978
5.33928
-0.0587289
4.65053
0.340142
-3.41185
-2.15263
-4.30492
-3.23449
-4.8391
-3.67139
-0.436045
-3.11124
-0.715312
-12.1275
-14.1193
-14.1754
-10.0709
-9.53078
-5.11647
-4.70864
-0.0959242
-13.6306
-11.6779
-17.2644
-11.6671
-10.3425
-11.172
-11.7672
-12.9211
-11.8469
-13.9626
-12.2722
-13.7842
-13.2623
-11.3693
-14.0159
-10.1722
-14.5318
-13.0669
-9.81453
-6.32398
-9.32874
-5.20744
-9.88335
-7.02127
-4.69173
-0.73404
-4.55403
-0.187045
-3.99577
-1.4994
-54.7082
-12.6351
-70.582
-43.0271
-96.5452
-78.0519
-128.955
-47.532
-76.3152
-98.9985
-115.596
-113.257
-138.966
-198.717
-79.5628
-92.3733
-103.785
10.6609
-108.084
-125.925
-114.388
-133.63
-164.93
-187.813
-127.964
-137.402
-122.484
-92.6211
-151.321
-130.959
432.912
435.145
-176.972
-170.846
-161.515
-133.724
-141.349
434.404
-59.9109
-121.853
-53.4673
-119.903
-39.1463
-29.7619
-3.63089
-21.1888
-5.84059
-18.5123
-2.76572
-17.1421
-1.06726
-101.375
144.912
-154.764
334.084
428.625
346.381
424.372
-160.175
-114.486
-171.727
434.172
435.186
431.527
434.239
-159.195
-181.688
-152.293
434.454
386.16
433.837
363.29
-51.2855
-135.02
-42.4279
416.536
-26.9429
440.74
-6.04031
-20.7527
-3.85811
-18.9817
-0.761411
1.05615
-104.211
127.089
-121.6
346.496
424.569
338.928
422.764
-113.765
-148.144
431.285
433.58
430.937
433.409
-146.942
-169.026
-180.45
433.321
399.406
432.901
358.368
-45.0283
-154.012
-71.7884
426.191
404.144
-40.6289
-4.23254
-29.8566
-5.9827
2.60443
-24.9194
-0.733314
-145.237
-71.305
-116.002
431.039
433.549
429.382
-182.265
-137.197
-173.339
433.034
383.74
-150.755
-84.1135
-158.24
-97.135
415.048
-45.4517
-146.536
-73.5761
-6.96713
-45.822
-8.85023
-27.8122
-1.467
-37.0624
-1.11589
-89.2993
-58.84
-94.3205
-115.004
-86.7481
-107.659
-168.442
-112.17
-151.939
-120.822
-147.731
-106.782
-124.846
36.9904
52.1512
41.6151
106.303
27.5518
75.3173
35.1583
-74.7862
27.4265
-59.5157
-4.58797
-67.4764
-133.33
-54.0328
-85.8681
-89.3276
-122.992
-135.674
-88.8879
-82.7134
-108.452
-145.978
-136.394
-142.145
-30.9666
7.66803
-11.3436
-3.32724
-41.7305
2.23979
-21.5389
-62.8576
-24.2138
-34.6635
-73.3102
-112.248
-42.4969
-57.9892
5.76453
8.94129
7.27054
5.5319
5.79538
1.749
4.83501
0.517194
4.63126
-0.409939
-4.51989
-4.1905
-5.86833
-2.40195
-4.08005
-4.44113
-6.38165
-5.14633
-3.73696
-3.16785
-1.55557
-3.66378
-1.66393
-2.56883
-0.625386
4.26557
5.39486
4.77837
-1.02317
-2.14074
-3.61129
-2.976
-2.72811
-2.50288
-0.294314
-17.8554
-12.2528
-9.8733
-8.03115
-12.4186
-14.546
-13.032
-19.5527
-14.537
-9.90949
-19.1695
-11.2336
-9.03958
-4.84687
-7.02533
-4.64268
-5.2235
-0.0919906
-3.59563
-0.575253
-11.3122
-9.28052
-10.2218
-8.57799
-9.29361
-6.88991
-9.01749
-14.7455
-12.9557
-15.5426
-13.6967
-18.4002
-13.8517
-18.2054
-11.4042
-16.6047
-14.6869
-17.848
-14.1343
-19.0736
-16.3411
-5.66531
-10.859
-7.74165
-7.7862
-5.95445
-10.3571
-7.25945
-0.563224
-4.40804
-1.71287
-3.61452
-1.44507
-4.41861
-1.78651
-150.251
-110.526
-129.933
-103.911
-205.086
437.328
-176.031
-156.993
-202.683
-229.039
-183.223
-165.897
-130.337
-128.358
436.996
437.4
430.918
435.029
-182.49
-128.987
-128.351
437.179
-155.392
433.283
374.007
-49.6523
-116.99
-34.7572
-121.305
-25.774
421.686
316.745
-3.09353
-14.0194
0.574672
-9.35074
-0.0161423
314.163
432.374
435.427
431.459
433.924
428.766
432.109
-132.324
434.51
459.184
432.093
404.087
431.302
413.9
-31.7103
423.358
405.179
314.338
417.604
345.182
1.19196
-15.8647
0.439871
316.039
18.861
274.819
8.22597
434.617
430.486
432.331
426.045
430.838
425.198
429.482
400.913
433.827
341.806
430.974
411.307
430.175
440.113
449.657
348.719
437.531
311.205
442.381
246.971
0.322857
326.563
1.50258
244.262
2.35046
304.249
1.27186
431.564
429.801
433.177
424.455
428.911
423.97
428.69
401.799
432.297
390.562
430.166
432.316
428.362
472.987
320.425
410.354
323.239
423.426
298.573
370.314
292.211
1.77532
1.6456
296.791
293.192
6.27304
433.149
429.386
433.097
424.999
429.383
427.201
430.564
372.288
432.45
-151.23
428.843
413.713
428.365
375.726
-143.286
-59.8708
351.46
225.039
409.529
278.121
1.38227
-40.6009
0.458265
238.34
5.81705
311.503
-7.94456
432.897
-92.6532
425.069
430.954
430.722
432.075
-150.088
-112.044
430.399
547.538
431.242
409.41
-65.3974
-91.9975
-100.618
402.511
319.584
394.254
-71.8866
0.0733796
-69.3672
-6.97815
301.327
-14.2011
-50.5015
-2.69055
-72.1429
-71.192
428.293
432.272
-58.7997
-85.735
-93.2851
-123.947
431.754
408.864
-93.3973
-137.165
-127.433
-146.214
-136.097
-80.2187
-143.019
-128.118
5.90413
9.36709
8.41553
-1.32582
4.64985
-7.06334
-4.0985
-8.51972
-5.80709
-2.75511
-3.1224
-2.31447
-0.576899
-2.34914
-0.59453
-7.88139
-7.17635
-5.85167
-4.19874
-12.4588
-21.902
-6.25058
-17.6037
-21.0064
-9.00261
-18.2179
-13.8586
-3.90654
-4.37208
-9.59641
-5.15442
-3.31426
-0.600987
-4.01973
-0.736716
-6.08758
-3.97101
-7.49719
-3.31751
-3.08576
-0.740113
-0.18864
-21.9778
-12.7556
-24.0716
-5.92082
-18.1489
-6.19449
-26.647
-11.1416
-23.7383
-17.3691
-18.9505
-15.3226
-28.077
-13.217
-5.48428
-13.2465
-6.54494
-11.8463
-5.88484
-6.71885
-8.29002
-25.221
-16.1067
-32.8913
-7.35151
-28.8946
-21.0805
-20.1511
-35.6734
-30.7967
-29.9604
-14.3534
-41.1135
-37.3171
-32.0625
-56.4265
-21.5575
-64.0596
-42.7431
-123.785
-42.0917
-67.8546
-60.9256
-59.9494
-49.4818
-134.163
-93.0487
-126.547
-134.097
-190.342
-74.6152
-163.277
-140.561
-201.256
-104.713
-213.358
-167.323
-182.756
-160.841
-221.93
-153.046
-212.582
437.04
437.705
-207.335
432.302
436.477
-160.072
437.31
-151.571
-214.46
-137.498
435.798
457.228
-34.2248
-117.403
-23.3796
-95.0885
-20.0036
404.731
292.989
-3.09743
-7.02861
0.141319
-11.5106
1.5672
304.995
-3.72127
434.393
415.765
435.154
369.673
434.818
386.011
-20.4439
431.322
314.248
351.757
273.273
379.831
153.545
0.502926
304.093
302.13
-5.76007
285.48
-0.190488
421.001
431.533
360.189
434.839
410.465
432.171
449.759
309.64
416.139
299.567
418.552
272.629
437.461
256.605
1.59866
334.237
7.38853
292.424
-1.48511
251.539
-90.88
412.618
430.223
438.219
430.854
556.029
429.723
618.765
318.294
441.337
222.774
421.863
258.925
432.049
273.939
-0.373272
303.705
4.18976
145.004
268.655
-37.6224
428.442
428.433
415.176
430.766
465.408
430.291
426.126
273.863
364.186
305.13
426.987
0.433841
436.012
194.528
267.483
1.30383
193.702
-78.8267
375.404
429.209
440.67
429.945
441.694
429.926
422.832
275.009
422.143
297.844
450.156
229.313
383.201
228.923
5.3933
334.833
-2.6037
161.415
265.095
-1.33331
410.891
431.144
407.176
429.467
208.54
427.625
407.401
290.77
416.082
398.651
145.545
429.083
285.985
-26.1777
-4.05745
273.333
0.200054
257.069
-3.13906
432.286
-52.5303
-85.6721
428.892
428.354
428.168
431.806
418.656
-95.3341
-137.057
428.063
407.715
430.927
-73.075
-142.084
-110.481
429.703
285.11
-140.143
-82.6659
-8.01411
-76.7544
-7.71991
313.905
-5.23094
-59.5563
-4.77987
-87.0554
-46.2178
-82.0422
427.047
-35.9926
-85.9858
-143.573
-99.1513
-137.674
-138.652
-102.898
-141.318
-123.873
-157.864
-123.989
-142.149
-99.9761
-170.972
-143.079
-43.7587
0.821784
-20.8284
-21.3496
-84.6689
18.5533
-49.2862
-113.387
-39.568
-53.9166
-88.899
-145.406
-50.7522
-69.467
-12.3441
6.84668
-11.1772
25.3138
-42.4105
16.2376
-30.3677
-14.8831
-17.2454
-44.4133
-49.2893
-28.9546
-10.6304
8.15528
-8.79625
10.2774
-26.4094
10.1396
-11.4011
-14.6256
-9.96909
-7.82634
-24.3624
-23.5728
-14.5796
-11.8313
10.8567
11.4977
11.5934
3.58947
7.31929
-10.1999
8.35741
-8.14786
5.7705
-4.78727
-6.89023
-10.9379
-10.297
-6.90464
-5.92991
-1.93111
-7.45248
-2.45052
-3.43072
-2.18753
-1.19516
-2.65055
-1.24658
-1.82399
-0.443024
7.01751
5.59127
-4.31488
-5.56634
-5.07561
-3.65364
-2.20956
-1.90961
-0.282413
-6.17649
-6.07679
-7.83228
-7.06853
-6.97795
-9.23921
-13.0948
-7.8255
-10.6065
-8.548
-11.4865
-14.8125
-12.9441
-11.1134
-9.20723
-13.7985
-12.6834
-8.4382
-5.87718
-8.32563
-5.25261
-9.5066
-6.87751
-3.81932
-1.59512
-4.55864
-0.125962
-4.33869
-1.77772
-17.3753
-6.16071
-21.9301
-7.81309
-12.7033
-8.34276
-15.4129
-15.9636
-23.0528
-17.1417
-16.0524
-15.4975
-20.0129
-18.6055
-25.5203
-7.50535
-20.097
-11.7848
-29.2472
-18.4208
-26.1367
-25.2936
-36.7835
-33.492
-42.8139
-143.864
-15.1697
-50.3364
-57.6086
-142.565
-147.895
-95.8706
-55.116
-54.1572
-150.86
-136.081
-36.8653
231.329
-139.276
109.816
-59.8996
310.242
431.012
-162.7
-140.897
-198.295
-86.0969
-161.214
435.212
437.908
-144.889
-206.219
-147.738
-162.786
-153.543
437.446
-39.7959
-102.452
-23.373
-136.538
-57.9062
-29.0845
-3.67893
-13.1841
-0.761766
-17.1574
-3.39092
-13.3354
0.0399382
-201.637
433.905
435.52
435.193
437.355
432.008
434.717
-133.328
435.221
401.344
436.589
419.544
433.932
419.247
-17.1317
404.259
290.598
428.464
-17.4232
425.575
216.865
1.88107
293.322
2.55503
-11.291
1.00149
271.37
1.50339
556.113
433.463
425.607
433.907
356.651
433.353
361.281
267.99
413.56
251.853
414.712
278.117
442.326
32.7921
3.16992
317.612
309.691
4.65941
227.463
-113.403
383.211
435.062
416.503
433.515
438.184
427.646
489.604
201.921
437.089
262.327
436.181
140.384
402.789
164.672
0.324062
352.911
-40.1719
207.311
325.897
580.886
428.743
592.246
425.063
435.759
419.241
371.346
218.447
430.277
208.825
342.931
161.033
325.709
270.474
-39.2817
233.096
-32.8896
226.091
271.664
520.024
415.031
411.244
414.711
408.923
413.222
410.185
412.481
427.008
420.081
427.471
416.817
419.39
417.35
420.199
470.146
429.301
489.438
418.437
371.894
419.552
349.343
171.292
450.778
67.3369
328.817
268.398
275.312
244.771
164.671
267.646
481.483
240.382
745.33
452.36
431.37
208.573
422.842
392.73
427.165
427.513
207.658
393.432
191.695
265.701
179.852
439.487
232.95
375.631
-2.07827
210.215
704.983
258.75
388.92
426.84
408.372
428.742
544.487
427.19
401.114
180.393
426.185
326.602
437.194
228.651
424.707
209.199
-28.9658
284.818
-1.47204
311.21
233.84
-3.70167
428.322
430.197
431.761
423.5
427.205
429.366
430.555
437.986
430.895
426.774
442.365
429.74
356.624
302.648
-78.3509
422.736
234.307
342.435
296.908
-8.36305
-56.5034
-2.25245
260.124
-26.2934
298.521
1.67
418.385
179.215
14.1988
332.809
418.4
192.882
-56.3721
432.075
-53.1161
-89.3229
431.349
432.32
-64.8058
-73.32
-140.87
-105.005
-141.544
431.085
323.908
-78.6562
-132.488
-93.9458
-151.978
-136.11
387.729
301.183
-144.94
-101.708
-3.27711
-61.2071
-14.1818
0.961156
-56.6595
-11.5068
-100.198
39.4628
-43.156
-72.751
13.5951
-57.5522
-140.233
-88.0242
-88.4569
-151.425
-73.4425
-125.926
14.5333
-24.5439
16.3757
-35.9507
7.97389
-11.8023
-25.0506
-26.5582
-50.1369
-76.2006
-24.4903
-30.7122
-15.2766
6.95836
-8.91667
7.15854
-5.16472
6.00091
-3.07864
-20.1656
-11.7105
-11.9471
-15.5179
-18.5805
-10.3702
-13.2403
9.36113
3.65762
6.91761
10.3157
8.69712
5.50152
5.78815
-3.88198
4.66621
-3.64162
4.6778
-1.63045
4.49113
-0.703449
-8.96828
-5.69413
-5.73111
-6.69001
-8.36814
-2.90106
-5.11911
-4.82243
-4.16442
-3.0231
-7.8567
-6.08318
-4.79853
-3.87727
-1.86925
-2.4091
-0.591613
-4.42833
-1.93708
-3.09797
-0.699927
6.35352
2.59818
5.36747
-3.5174
4.73022
-0.996931
-4.71827
-2.14035
-4.43642
-2.69042
-4.2921
-3.68332
-0.407859
-3.24973
-0.485774
-9.71704
-10.4706
-8.94917
-8.2578
-5.49812
-4.61244
-0.237665
-7.83172
-6.44846
-6.76079
-14.4586
-7.7139
-6.10137
-6.55315
-10.338
-7.78356
-10.6408
-7.65244
-9.78919
-7.52092
-10.2746
-9.27476
-13.6948
-12.7103
-10.741
-9.77744
-13.5266
-12.716
-5.37082
-10.4336
-7.76154
-8.50285
-5.96368
-10.6954
-8.02461
-0.168324
-4.67937
-1.88058
-4.40244
-0.66628
-4.76337
-1.89794
-161.979
435.803
437.726
-74.5359
-148.9
437.178
437.449
-146.559
437.296
-165.782
-142.063
436.88
428.864
-57.9721
-30.8883
-116.916
-60.1709
433.207
-30.6993
-3.96119
-17.2432
-0.262378
-27.5458
-3.56217