/*--------------------------------*- C++ -*----------------------------------*\
| =========                 |                                                 |
| \\      /  F ield         | OpenFOAM: The Open Source CFD Toolbox           |
|  \\    /   O peration     | Version:  4.0                                   |
|   \\  /    A nd           | Web:      www.OpenFOAM.org                      |
|    \\/     M anipulation  |                                                 |
\*---------------------------------------------------------------------------*/
FoamFile
{
    version     2.0;
    format      ascii;
    class       volScalarField;
    location    "15";
    object      p;
}
// * * * * * * * * * * * * * * * * * * * * * * * * * * * * * * * * * * * * * //

dimensions      [0 2 -2 0 0 0 0];

internalField   nonuniform List<scalar> 
146404
(
10.1537
3.31975
47.9113
44.2501
21.242
5.49186
2.35949
58.6726
54.3391
-2.93408
2.23722
55.2578
51.8539
23.9934
8.72823
1.98487
26.4973
11.5294
4.2385
45.0635
42.1739
22.814
10.3733
3.88502
46.7365
41.5777
20.5207
5.52146
0.892598
49.0176
37.3339
16.2879
3.66862
-0.376473
53.9708
46.8656
19.2292
3.37203
-0.466755
62.3716
64.4163
-2.12549
-1.6579
59.36
53.1719
24.4627
2.22395
-1.0196
59.0173
51.4724
27.6826
6.21296
-1.93375
58.9442
50.5318
24.8305
9.43455
2.00709
59.5661
51.3048
26.7876
12.3401
3.98022
53.9872
6.90343
0.665074
51.8591
45.4293
18.3975
6.10558
-1.57612
52.1311
39.4744
18.2159
4.33599
-1.44464
54.7159
35.2459
15.0424
4.58263
-1.79446
59.9548
45.8061
16.2171
2.56603
-3.18319
68.2444
64.0078
-8.57624
-4.54566
64.6209
50.024
20.3983
-0.360445
-3.62726
67.2266
43.2975
20.5447
5.18925
-1.43397
63.8097
51.852
26.6013
6.61442
-1.97891
64.2606
56.831
25.18
7.63575
1.64096
65.4242
61.9805
5.03439
2.7589
54.6754
27.0512
8.58757
4.07597
46.8013
39.9972
15.9927
1.93877
-0.416773
53.8659
47.8429
13.7145
2.65841
-1.33365
59.9886
49.9764
15.0605
2.40428
-3.85806
64.1292
40.0321
16.0438
2.6755
-4.74031
78.5554
27.1443
14.4295
-1.65359
-4.28828
94.9452
24.3618
4.63493
-2.03174
-5.38049
105.451
70.085
-9.71576
-5.36499
94.7181
32.5078
4.67404
-5.18111
-6.78922
79.9555
36.7794
12.673
0.0993894
-4.3651
75.0811
51.1791
17.4849
-2.27884
-4.45162
70.1793
62.1108
20.2745
2.32337
-1.22336
63.5738
55.6803
22.5463
8.47175
-0.224951
58.2244
51.8776
26.5647
8.47206
1.20714
51.7378
30.4639
14.4572
5.9401
42.2345
37.2878
19.2391
3.16572
0.389147
46.2244
34.5161
16.2364
4.91702
-0.808992
54.1689
40.2988
15.671
2.79658
-3.71127
75.282
43.9344
4.13634
-0.940873
-5.31075
109.467
36.4267
-1.8779
-6.39348
-7.75164
132.294
-44.3325
-12.708
-3.03131
-4.57488
148.089
-153.553
-15.9638
-4.94061
-2.71485
182.746
-115.668
-10.0431
-4.12069
153.529
-157.367
-31.4381
-10.4203
-4.44369
139.52
-87.9553
-24.9962
-8.73136
-4.64506
106.191
39.4089
-9.39746
-9.88608
-5.82978
80.0523
55.3036
8.66516
-2.75319
-3.97691
62.8097
48.555
22.424
6.83823
-0.772703
58.424
47.1022
26.775
8.31084
1.70494
55.3081
49.4728
28.2076
11.1168
2.9131
41.9318
39.7217
19.1064
8.37832
2.78096
45.4052
39.2639
22.3301
1.98542
-0.865482
50.8195
32.7925
13.2202
4.1197
-2.10549
66.124
24.4374
3.17255
-0.419888
-2.52888
113.13
-25.4861
-9.2944
-6.32478
-4.57485
157.192
-100.949
-26.9649
-6.94518
-4.89519
344.132
470.118
-7.91021
-3.97114
414.17
469.664
468.218
436.241
419.166
466.283
467.044
454.345
282.554
407.698
466.582
469.16
454.03
343.146
461.362
-10.6764
-4.49792
205.662
-15.5876
-5.11486
113.809
3.60947
-5.96206
-3.03801
-3.10705
69.0457
46.068
16.4739
4.0876
-2.16966
61.7293
50.6646
27.8135
6.05457
-0.182666
58.7051
52.1124
29.3236
9.75773
0.631633
55.5056
51.0814
28.6947
14.5621
3.78512
48.127
43.4357
18.1725
8.20302
1.10692
49.0554
43.0925
16.3452
3.27215
-1.63793
56.1216
35.5663
9.8125
-0.483347
-3.82223
93.7248
4.90333
-3.803
-5.34602
-5.86992
151.192
-142.524
-23.0007
-9.23645
-4.24773
408.661
470.82
472.254
-5.81126
445.19
464.517
466.179
422.511
261.187
448.462
461.317
464.355
462.335
283.747
447.782
460.557
465.835
453.674
252.676
442.894
461.171
465.429
447.549
300.259
423.236
462.569
467.053
421.667
257.199
380.217
467.46
470.913
460.257
-5.25669
214.065
-159.728
-47.0695
-7.35189
-4.64939
89.384
25.9308
0.32724
-5.92507
-5.47228
68.8059
56.8871
16.8485
-0.686197
-2.78813
63.4048
58.9324
26.1309
7.13456
0.182057
61.7489
55.743
25.5899
11.746
3.41885
45.9243
40.6908
14.6576
5.83584
-0.211991
50.7622
47.9902
10.3038
1.82459
-2.65908
69.3749
-5.96619
-5.63987
121.271
-10.9779
-14.3454
-9.26181
-5.99829
339.294
-20.5165
-10.3121
-5.0731
445.877
465.182
469.833
415.666
245.903
451.9
461.561
470.156
396.539
251.675
451.256
460.575
469.912
464.308
287.63
451.118
459.543
465.846
464.269
217.413
449.792
459.075
470.317
485.853
333.712
442.011
459.157
466.306
395.437
337.299
418.301
462.102
463.109
451.479
266.72
335.359
456.092
470.263
-8.79307
-4.75658
124.54
-25.9721
-28.2379
-13.7341
-5.6939
76.3601
126.844
-23.5285
-3.85853
64.864
61.5238
18.4997
2.69926
-0.0604917
60.5166
53.7772
24.7432
11.2664
1.99278
52.8391
30.4426
14.2145
6.57215
36.947
21.6141
9.73876
4.51929
41.6277
33.0181
15.372
3.44255
-0.741045
48.4602
29.7015
10.9178
2.39171
-3.03411
76.3585
19.9968
2.80936
-4.30841
-6.73273
122.864
-100.233
-31.0167
-10.496
-4.85139
413.564
469.25
470.227
473.491
-5.27379
450.473
463.079
467.772
416.8
232.958
452.422
461.364
467.953
482.305
234.327
453.24
463.7
450.646
360.467
248.518
449.899
462.305
451.548
361.019
230.797
451.598
460.119
450.979
351.018
258.145
446.707
458.564
466.646
475.023
182.109
430.301
458.402
462.77
439.987
219.413
377.458
466.862
469.357
412.23
270.49
156.646
-157.063
-31.4895
-10.1192
-4.22754
70.1892
46.9427
12.5361
-0.598039
-3.4577
60.9893
47.1162
23.9605
7.09461
0.664634
57.8451
50.9694
28.4986
8.87868
1.37311
54.1248
50.1688
32.2277
16.0392
6.13408
31.3104
34.711
20.953
7.1234
3.39432
41.5352
32.4223
15.0404
2.68372
-1.07544
48.5914
30.2477
10.9568
0.502033
-3.54939
79.9736
18.1774
7.29509
-3.87754
-7.08866
146.257
-149.35
-29.2455
-8.12998
-3.86407
418.635
469.518
469.694
450.122
451.193
463.913
467.765
464.978
306.174
453.818
462.925
475.709
471.405
202.922
452.53
466.921
459.441
349.428
255.124
451.174
460.143
440.371
354.196
241.373
450.48
462.792
451.044
361.474
252.751
448.171
459.644
465.451
489.649
215.686
434.054
458.931
465.818
471.051
233.449
385.388
463.579
470.087
442.069
279.045
172.52
-145.231
-35.0275
-7.42581
-4.05588
68.9977
43.007
15.8522
3.10925
-2.40205
61.1083
45.8635
21.7636
7.22363
0.921829
56.8244
49.2524
28.8652
8.58249
0.357248
53.7464
48.3264
30.1915
13.7228
3.99551
35.6996
20.9088
8.15155
3.18998
42.5547
36.8106
16.9214
4.94235
-0.690086
49.8361
38.9065
14.7759
0.682685
-3.38429
76.1222
27.2189
3.70632
-9.70466
-6.12212
148.214
-82.0442
-28.3404
-10.1405
-5.5758
406.014
469.192
470.75
429.49
-4.52784
448.324
465.193
467.683
449.402
251.221
455.335
464.174
474.387
472.068
230.775
456.317
464.972
459.946
372.917
241.694
454.099
467.274
450.832
359.359
259.6
454.318
465.239
456.29
377.653
272.426
446.881
462.115
471.187
469.94
154.929
431.508
462.783
466.703
391.573
249.712
370.696
469.771
470.848
453.768
291.085
140.531
-126.701
-39.4866
-13.8771
-6.33353
74.8141
41.8667
3.47476
-4.86219
-3.9157
61.9012
51.3666
25.0434
6.51102
-0.788819
56.9664
50.3003
26.657
7.56951
0.53036
54.0061
49.828
30.2679
15.183
4.81533
48.2891
42.3199
13.658
5.26758
-0.252789
52.7009
46.8616
11.8528
3.08739
-2.49482
65.469
-2.66887
-4.68611
109.988
1.70633
-15.5121
-11.0618
-7.92684
320.606
-22.5572
-11.6429
-3.44709
429.686
468.85
468.647
455.53
263.706
450.119
465.944
470.851
459.826
213.924
454.084
465.883
470.372
481.693
337.998
454.064
466.983
482.732
475.566
228.963
450.092
465.283
471.617
471.717
249.25
442.898
464.431
467.7
416.229
249.377
417.858
467.661
466.183
400.879
270.313
325.714
463.605
472.273
-14.4809
-5.8752
109.905
-6.35563
-17.9539
-14.1336
-6.06137
69.2213
69.6331
-16.2321
-2.94719
61.4061
56.4357
19.4351
-0.233376
-0.209527
58.4407
55.9884
22.3869
9.16704
0.975127
50.2705
26.1376
11.9609
3.87657
46.1176
41.7938
14.1118
4.19597
0.688358
46.9388
40.8876
15.2284
2.82828
-1.84143
51.3065
30.0906
10.9661
0.703267
-2.86221
82.8617
16.5945
5.14329
-4.29221
-3.47971
152.809
-107.608
-25.8866
-8.75961
-3.88367
365.284
475.104
473.573
-4.80355
426.599
469.267
470.148
449.063
243.622
440.433
467.79
469.25
473.629
224.163
442.372
467.517
475.025
382.381
145.227
437.868
467.281
468.767
469.19
246.428
419.163
469.379
467.023
435.103
253.465
374.488
471.13
471.543
355.899
-6.9577
124.004
-69.7378
-12.6785
-9.14028
-6.04305
61.4854
35.1244
12.7561
-0.50745
-4.75463
53.0521
43.8521
19.4887
-0.936598
-1.22365
53.6614
48.2332
19.7928
4.28771
1.35737
54.862
51.6308
19.7992
8.78017
4.16128
37.654
36.9175
18.1053
8.14799
2.9483
41.9039
36.0518
18.3193
5.15478
-0.654485
45.4785
33.7436
14.8216
2.21741
-1.34951
58.3011
31.0461
12.1158
1.47335
-4.18741
95.3701
11.1287
-8.44812
-5.76338
-5.62209
141.596
-49.4003
-29.0255
-7.86914
-5.7135
315.07
474.196
-21.2236
-9.11568
-3.92986
388.254
474.599
473.241
422.032
396.951
474.945
474.532
428.887
296.66
387.426
474.27
472.215
447.095
321.012
468.742
-9.5408
-3.23111
131.307
-10.0432
-5.39506
87.4133
26.6269
0.375347
-5.17893
-4.70411
52.9799
36.3513
16.6205
4.82173
-2.39303
47.781
37.8611
20.3964
5.13536
0.16821
47.7171
42.6043
23.2734
4.58045
0.839982
47.9846
43.2868
23.4868
11.1668
3.35595
39.6981
37.0364
17.1912
6.27004
0.519331
43.4028
37.3765
20.0008
2.54212
-0.239149
50.7541
41.681
13.7083
2.34476
-1.87904
64.8834
42.3754
4.38075
-3.54045
-3.86565
81.3495
27.193
1.22219
-3.04108
-4.49219
105.454
1.43419
0.267078
-3.96177
-5.07252
123.333
-42.683
-13.3254
-6.26139
-4.72581
134.327
-100.292
-5.09462
-4.13266
122.474
-42.5377
-9.69199
-5.54575
-5.24602
106.447
9.72055
-0.588158
-2.25137
-4.51265
81.0499
34.8801
1.07347
-7.48747
-3.64548
65.5076
50.4128
9.3567
-5.13379
-1.87303
53.8796
44.1381
19.4025
2.93545
-1.42793
47.8131
41.0753
22.6586
3.90797
-0.826146
45.5163
42.064
24.0137
7.43853
2.15042
42.748
38.4463
13.4147
3.9675
0.795037
49.4446
44.6317
13.2951
3.72991
-0.0943786
52.4105
44.1488
9.68426
3.71257
-2.28532
48.9044
33.1852
12.8515
1.45916
-2.51109
52.2609
31.6021
12.3921
2.16755
-3.48257
71.2282
28.0884
7.65362
-1.29196
-3.5171
79.0462
27.93
-4.02017
-3.65061
59.7213
34.6452
13.2309
0.665117
-3.03794
55.4049
37.0691
18.1882
4.75475
-1.37953
58.1781
43.2829
18.083
1.5965
-2.07555
58.1112
51.1581
13.1108
2.24592
0.254599
54.7875
49.7427
15.5804
6.0433
1.3691
49.8111
44.1729
20.0689
8.84461
1.94509
42.4614
24.9942
10.7768
4.1777
47.253
9.67109
1.54654
45.5561
38.6588
13.9467
2.69279
-0.74829
44.5041
37.2499
17.6718
3.59447
-2.80609
45.1034
33.4163
14.579
3.19579
-0.30922
52.1028
41.529
16.6177
2.41185
-0.613013
59.6598
42.3392
-1.58846
-1.42563
52.8914
45.9757
22.58
3.93506
-0.0373403
52.1898
42.1448
18.4382
5.4263
0.336183
50.3014
41.8397
21.3701
5.1112
-0.900446
51.8591
43.727
18.4499
6.3871
1.87824
54.5426
56.7379
18.2963
3.31641
3.35844
22.7774
9.35203
3.7193
39.3094
37.6612
17.3143
8.54449
1.17339
41.3577
37.5191
17.8944
8.50407
1.85222
42.6388
37.5126
19.0724
4.33933
-0.488266
48.0748
41.6059
18.346
2.83507
-0.379991
55.3347
44.1936
3.49899
0.815025
52.1068
45.7053
21.2454
4.89173
2.25789
49.2077
42.2839
19.2251
5.3642
0.619457
47.8058
42.7094
20.1668
7.03425
2.64449
46.2192
42.8154
22.6157
9.592
4.14723
40.6863
40.438
21.0985
6.87995
2.57356
46.8925
40.3733
7.2301
2.87225
45.7314
45.5757
21.6625
9.52014
3.51259
11.9566
5.00152
25.061
22.0358
7.30604
7.08041
2.73726
2.89801
0.3284
53.3413
58.0515
25.6044
45.9111
19.1134
21.8608
6.60111
16.4462
3.37807
6.60536
2.84236
1.90216
2.46976
2.54257
0.186299
2.36679
0.445561
53.7485
67.9587
57.6372
53.1167
53.9115
27.7315
23.6237
9.75693
-5.94796
2.74789
9.11843
3.17966
2.44302
0.338657
3.03487
0.0358967
55.4028
53.0039
28.6026
24.7041
10.464
9.6275
2.89546
2.77337
0.0416391
44.4892
41.9169
28.221
24.9638
11.0254
10.8635
5.53191
4.93836
0.33932
40.7359
44.419
44.7401
45.1689
41.9034
27.5919
41.391
27.3846
24.2239
11.1751
21.8708
12.4491
10.669
5.9576
9.66985
4.34366
5.19667
0.14687
3.55879
0.211413
45.3477
45.3778
46.9746
46.0869
41.7301
27.1525
42.4512
28.3412
21.535
11.7249
20.9609
9.37741
8.97491
3.74059
6.72645
1.5619
3.56398
0.469248
1.10858
-0.585752
46.6469
45.2232
47.3613
46.2304
49.5608
48.1662
43.6408
25.8386
41.44
34.0238
42.8467
34.5136
11.1142
20.6643
8.18231
19.8836
9.82283
19.4118
8.47903
1.89843
6.73638
2.44847
4.53429
1.13594
3.07375
0.489561
2.62323
0.19566
0.0948881
-0.590629
-0.24614
-0.502094
45.7996
57.5407
59.7052
53.4916
52.013
58.1898
62.7001
27.4512
48.2513
18.7236
46.3725
33.6829
53.0017
18.3796
6.71597
15.8373
3.4837
17.2304
8.13233
14.2299
1.42208
2.77296
5.75026
2.13935
4.22371
1.34775
4.62233
1.46848
0.0303446
1.66497
0.28066
0.207413
-0.603017
1.10623
0.00859416
63.8505
55.6683
58.8146
61.3944
71.6171
60.5416
60.0674
52.552
29.6393
61.9121
55.5324
31.0459
23.4425
9.54877
0.657139
22.8855
9.34815
2.80151
7.89601
2.59202
-1.62935
1.52351
4.07765
2.73001
0.375581
2.26851
-0.0548671
1.19281
0.196531
0.697686
-0.824153
55.2803
53.3705
59.4081
57.8965
58.6285
56.9674
30.4296
51.914
29.3763
52.7741
39.6333
51.3839
39.5918
11.0905
26.4106
12.8876
23.833
12.1216
23.5967
11.7404
2.44818
11.4564
4.30907
5.13014
1.47211
5.48441
2.55207
-0.061877
3.63782
-0.0250803
-0.40574
-0.822993
0.278653
-0.57767
58.9565
56.573
58.5742
57.4107
29.8595
49.5046
37.3638
52.2141
32.9393
13.0641
23.3122
13.3828
25.2515
14.8947
4.91503
7.00185
4.15739
12.0363
5.18236
-0.266926
1.85879
0.258494
3.69512
0.056703
58.1371
57.0632
57.5979
54.9538
51.8559
32.5602
51.8787
33.3175
25.4912
15.6806
27.5573
15.4332
12.5788
5.45812
13.2829
5.97973
3.39231
-0.201344
3.65211
0.129231
57.173
54.0208
51.1973
31.6932
28.3829
14.2467
13.4475
5.4795
4.82223
0.0639293
51.2704
70.3174
9.33942
2.99369
1.86832
0.278099
42.9541
44.94
52.008
57.32
50.1676
49.3488
42.4348
28.3183
47.0719
43.1285
28.9818
24.0821
11.5527
4.76605
17.3423
10.4956
10.2864
5.16103
10.2565
1.42406
7.71047
4.21045
3.6804
0.242686
0.380576
-0.203002
1.02782
-0.317708
46.4922
46.397
45.0824
49.0723
47.3478
48.4103
46.3092
27.7088
40.7173
32.0479
42.7121
31.5702
42.1717
33.9298
11.9567
20.2186
12.9793
17.7952
9.62504
20.3412
10.5336
5.807
8.0724
4.23011
7.04035
4.67555
5.72804
4.28965
0.0815812
2.06895
0.74405
1.41479
-0.457101
1.08096
-0.544273
35.506
51.5793
18.3041
46.1556
34.1821
61.0548
14.6815
7.9415
13.6122
0.653305
18.3413
7.89092
11.3194
-4.444
55.8119
32.0612
63.5286
54.3403
31.6365
0.0259759
22.8867
9.12566
-4.532
21.6977
5.96958
56.6641
59.2356
57.6749
60.4884
57.6751
60.786
57.9538
57.7577
61.8477
59.7964
64.1784
66.6067
32.8538
52.7475
38.1634
60.5391
29.6004
14.7899
22.2302
13.536
23.2213
10.109
6.12459
9.29924
4.86073
10.2777
3.90221
0.142587
1.97145
0.173255
2.70531
-0.104383
64.4069
70.2858
63.2656
27.769
53.9159
30.1864
23.5795
8.50439
25.7615
9.40838
8.53768
4.63358
8.90249
4.23532
3.56111
0.205041
4.59893
0.476573
45.611
44.902
39.1572
23.1001
16.7496
6.00875
4.85649
2.16224
2.38131
0.228828
52.4199
58.7735
47.1508
46.4805
51.2923
50.8976
73.9878
39.2231
26.1667
45.9843
21.8524
-12.6009
14.3387
6.92413
14.882
4.77295
10.4452
2.17086
3.10914
2.16777
3.58974
1.96996
1.57354
-0.00217159
1.81185
0.0476995
1.1647
0.0232959
46.4824
25.5788
47.8275
20.181
52.5353
18.2867
18.624
9.14518
12.8341
4.57753
15.8653
-0.667069
30.4505
60.2778
13.6843
35.1118
21.8917
49.4824
1.60905
7.29978
10.3399
-5.20321
10.3849
3.60046
2.7256
-6.60008
53.3544
29.0258
66.951
42.0608
15.4989
-5.64234
20.4987
3.84036
-7.01374
9.88107
-2.40808
34.3638
63.2077
27.5019
61.986
30.1646
61.8972
26.9321
11.7324
23.8665
7.7184
20.8501
4.33611
22.0604
4.99405
73.3583
57.4025
56.939
64.4874
64.8765
61.6085
60.4325
52.693
33.072
59.1072
30.0531
53.0893
36.824
7.15618
25.2082
9.85934
20.9098
6.46992
22.6268
13.2938
4.23972
8.15789
4.31053
6.55567
2.5063
7.50567
3.68611
1.20197
3.46795
0.681766
2.36169
0.652109
2.01864
0.312052
57.263
59.5996
58.1084
55.2242
31.7656
53.1171
34.1464
52.3042
34.1107
9.56737
26.2439
13.5151
30.1564
14.9035
3.60624
9.61294
3.44169
13.7909
6.34329
0.409957
2.56464
-0.179877
5.40178
0.121957
40.0501
42.7579
38.7576
24.0811
19.299
8.65769
7.18034
5.16539
4.14634
0.197824
45.1918
44.6809
41.4117
42.8041
43.8382
42.1265
37.4152
26.6282
38.7955
25.0945
37.9683
29.6836
16.4114
8.15559
19.4479
8.9157
16.9696
8.56398
3.47017
1.02986
5.66498
3.02827
3.49909
-0.313987
0.814384
0.182712
3.18976
0.304567
-0.538504
-0.129346
21.8562
47.7235
15.5161
43.8291
28.93
46.9232
14.6717
3.46943
15.511
-5.41066
14.9415
7.03429
8.25063
-0.999354
17.584
45.3204
26.4929
49.6561
9.52285
41.6222
8.89047
-2.96144
17.5907
4.53595
7.50436
-2.11953
4.3637
-2.46044
11.9556
48.976
-1.46886
-21.4299
-15.0586
-56.1121
-19.5579
0.457542
0.00892316
-7.53886
-7.09564
-5.18941
-14.7524
-9.12355
33.233
6.8297
-37.4324
-52.3995
-29.6285
-7.85244
2.82702
-6.27
-9.24063
-23.0724
-14.6491
33.0971
60.8024
27.1945
44.6094
6.18138
91.7663
4.26718
18.3906
2.02742
2.60266
-3.5932
-7.02405
25.5746
59.6239
28.4421
64.6172
8.9354
55.9148
33.9553
1.06834
19.3306
6.65419
10.3972
-4.42982
24.1997
9.83166
56.7468
51.1361
55.5135
57.4565
55.2256
55.6788
54.4852
42.0705
51.5309
35.5742
50.4749
44.0703
50.0719
42.8439
15.2021
28.8138
15.239
29.1199
16.0376
28.7423
16.5479
4.62004
13.377
7.23682
8.17839
4.26803
9.37104
5.88339
-0.229997
5.31111
0.587291
0.758269
-0.294045
2.40118
0.474946
54.2428
54.6621
54.8277
34.3004
50.7034
37.2103
14.9704
29.5923
15.5907
7.16637
11.6985
5.87694
0.171762
3.7465
-0.247415
38.872
22.8851
20.316
10.127
9.63715
3.27242
2.23739
0.942891
40.6728
42.4577
37.7422
42.2142
43.0046
42.2342
38.3768
25.2151
39.5336
23.0619
37.433
29.6005
19.6259
8.19755
20.0612
10.3622
18.7472
9.36532
6.3707
4.45209
9.60159
3.8365
4.01483
1.57182
3.86397
0.570223
3.19523
0.287745
1.34739
0.615689
7.40969
41.1743
3.06375
14.7157
2.02526
-41.4931
-29.1145
-3.04551
1.23149
-9.02237
0.677046
-5.05407
-22.9214
-13.2273
0.625696
-29.3592
-21.3003
35.0404
-142.052
-31.8234
-7.04602
-8.32515
-4.55051
-14.687
-21.9666
-7.88517
-39.1386
-127.618
-32.7218
-27.4092
468.15
470.427
-5.13577
-18.9442
-3.96151
-22.7374
-7.12776
470.076
-4.01714
-3.52443
-2.72452
-6.06064
-4.9739
-3.32486
-2.76485
-2.38024
-1.72489
-3.79196
-1.29695
-2.25341
-0.333766
-172.388
181.852
-209.515
371.531
464.181
383.055
461.73
-28.5864
-137.544
-22.1942
471.99
470.125
467.657
469.275
-4.45052
-16.7691
-8.8995
469.756
410.651
468.31
393.865
-5.18794
-7.75534
-6.36807
444.676
-3.89319
471.549
-1.58328
-3.74429
-1.64517
-3.16817
-0.330083
0.0893878
-141.884
160.789
-202.001
384.081
461.633
376.098
462.048
-156.914
-39.1001
467.355
469.047
467.565
470.487
-9.46369
-28.0115
-13.8846
468.135
431.051
470.076
382.894
-6.76462
-10.9403
-7.54714
453.702
433
-5.14197
-1.58295
-3.59946
-1.41626
0.00113465
-4.43124
-0.11578
-42.2818
-80.2569
-50.4013
467.062
470.458
461.323
-13.1428
-32.7663
-15.0527
470.116
411.453
-10.7768
-6.81777
-8.3284
-5.84085
446.553
-6.03469
-9.90719
-6.22049
-2.02896
-3.1295
-2.00869
-4.56682
-0.421858
-4.6053
-0.445182
-61.4082
-20.7876
-33.7434
-49.4022
-175.299
-62.759
-11.0961
-18.4215
-9.66767
-39.5039
-11.7489
-49.4231
-16.5528
74.7981
92.7376
81.0849
148.857
-16.3571
117.781
69.7315
-9.24089
64.9984
1.73792
19.3816
-18.6088
-10.4951
4.62586
-7.16766
-16.4832
-9.00704
-10.2248
-7.60353
-9.4464
-17.8928
-10.7971
-8.41777
-8.93257
12.4758
52.8173
35.2928
34.6127
8.05143
42.3884
27.0547
-1.20119
19.8143
10.5383
0.442661
0.29557
17.1827
10.8212
54.0968
56.5321
54.9169
55.4176
56.2193
40.5617
49.9937
42.7724
51.7669
35.8765
18.3701
29.9185
17.9425
29.5075
18.1793
7.44424
10.0478
5.89526
14.4421
6.50409
0.507602
1.86681
0.234457
4.32102
-0.096671
54.5916
54.9774
51.8267
34.2866
30.9015
18.9803
15.6215
5.54138
3.77062
-0.360822
37.4993
42.0256
45.4545
48.9664
39.2322
23.1859
41.2498
22.6362
20.6157
10.3122
18.0487
8.62735
9.40861
3.66379
7.2399
2.68701
2.5046
0.297895
1.78896
-0.0485558
44.5679
44.0511
42.9626
46.0184
47.0091
45.9512
45.2676
24.0328
39.1713
29.7718
40.8653
26.0675
42.2115
29.6261
10.2207
19.0758
10.0378
16.757
10.8254
18.3412
10.3742
4.51518
3.80596
1.05702
6.8973
3.11103
5.12401
1.16455
0.125195
0.100141
-0.810231
0.558524
-0.258746
-0.363749
-0.781573
-20.9567
-99.898
-33.4348
-100.905
-33.3182
468.865
-5.35699
-24.2811
-12.4962
-19.2383
-10.2025
-10.1383
-31.7677
-26.4639
469.138
473.032
466.656
469.472
-12.5375
-21.8979
-9.1142
472.964
-9.635
467.001
400.616
-7.47769
-8.304
-5.65295
-8.45881
-7.34585
438.493
277.551
-1.88728
-4.30533
-0.488921
-5.44161
-0.484636
269.886
468.268
469.668
466.641
469.156
464.272
466.963
-8.78766
469.237
496.603
465.611
429.745
464.883
442.861
-5.01426
450.935
427.358
275.509
441.049
296.452
-0.337658
-2.44282
-0.21422
271.772
8.37481
234.448
1.20296
469.178
466.637
466.768
462.289
466.4
460.822
464.501
429.971
467.264
376.081
464.529
443.114
464.624
473.403
474.377
321.935
464.204
266.047
469.672
222.514
-0.284209
300.735
0.0731424
222.808
6.69688
264.013
10.7376
466.117
466.766
468.812
460.638
464.52
460.317
464.565
431.497
468.354
421.5
464.558
466.825
464.125
508.523
299.135
440.488
298.613
453.779
273.334
405.762
275.912
0.0453781
-0.0376895
259.766
276.024
3.17058
469.481
463.294
472.461
462.248
465.784
463.705
467.132
403.665
471.973
-9.91848
464.959
452.119
465.643
412.371
-9.78214
-5.96399
385.156
203.063
433.674
253.434
-0.192121
-4.39565
-0.319615
221.115
8.55409
271.059
8.74631
473.242
-187.498
461.292
468.218
468.301
471.766
-11.1091
-16.1023
467.951
570.214
471.21
444.512
-5.79128
-17.0733
-7.21944
429.4
282.4
423.51
-6.04832
-0.302537
-4.92578
-0.975517
268.028
13.3034
-4.89984
-0.290999
-91.2881
-63.1794
464.622
471.67
-136.549
-79.8296
-29.3312
-13.5592
471.478
443.041
-49.604
-13.2978
-8.95842
-7.53025
-6.70763
-6.78304
-10.3985
-6.8917
56.2872
60.4791
61.4379
35.1482
55.2111
31.5291
18.3737
25.439
14.6471
5.98153
11.9016
5.84123
-0.397367
4.03156
0.0246773
46.7432
50.1176
46.359
49.9528
42.2168
21.8948
44.6594
21.2312
19.5801
7.8116
15.7853
7.51362
9.03348
2.94411
6.45203
1.29821
1.72805
-0.107668
0.92729
-0.481013
51.0463
48.1888
47.5491
48.4466
49.8585
50.0813
52.0465
22.3703
44.0644
23.03
45.3254
20.6304
46.0749
15.2167
7.46116
16.254
6.1758
15.2324
5.38671
11.9222
4.312
2.40769
5.13452
1.94558
5.19887
2.19695
5.74493
0.517671
23.604
39.4108
23.231
43.4451
15.0612
35.3416
4.91873
16.2128
4.38424
11.4698
3.2336
-9.74459
20.4098
22.8788
15.1865
35.6492
3.01645
25.0139
-9.5492
2.56997
5.96245
0.718514
4.06451
-10.636
-8.90065
-10.4939
-3.21871
-68.5018
-26.6322
8.62658
-16.105
-146.7
-31.5661
-3.85427
-13.1461
-8.61381
-15.203
-11.6853
-21.3976
-13.1991
-35.0631
469.357
473.355
-26.1071
467.972
471.499
-9.90259
473.096
-9.86198
-21.4719
-11.5524
470.977
485.617
-5.72771
-7.91879
-7.52721
-10.076
-6.24225
427.789
263.891
-1.27233
-5.26159
-0.548242
-4.7263
-0.698969
263.323
-0.191089
468.154
436.944
470.205
391.384
470.258
422.676
-8.14618
445.565
274.165
379.908
248.844
408.485
157.739
-0.323819
261.114
262.343
1.38791
255.101
2.98592
445.935
465.496
392.469
470.479
459.899
468.032
480.943
268.472
440.624
259.104
422.825
245.853
470.589
221.349
4.35709
285.149
1.80777
263.39
1.99365
221.85
-63.617
443.84
465.369
469.85
466.819
573.707
466.57
653.981
275.744
469.396
212.978
450.778
225.953
470.735
287.556
6.46956
262.694
9.1914
137.869
276.087
-29.4284
463.336
464.991
458.391
468.093
501.893
468.861
476.755
251.605
410.618
282.543
463.45
33.6762
469.753
185.959
250.254
2.16676
203.85
-17.6497
417.891
466.623
472.687
468.395
470.608
466.693
463.056
258.334
444.68
265.809
483.259
218.186
419.66
244.59
7.8901
286.165
10.5213
178.918
261.776
0.6184
445.647
469.851
440.91
465.63
253.539
464.914
435.878
255.108
451.405
440.384
174.785
452.359
256.665
11.6693
-0.194595
243.729
0.705521
229.372
7.94744
471.448
-143.739
-72.5857
466.001
465.321
459.78
471.454
457.946
-44.2859
-11.0703
465.17
438.002
470.652
-6.73628
-9.15022
-5.33634
454.207
258.9
-7.7657
-5.34416
-0.345772
-4.36737
-0.563384
268.816
7.34702
-5.34593
-0.65007
-74.0299
-41.5377
-41.8624
455.919
-82.4855
-48.2822
-10.3504
-18.6056
-9.22476
-9.93502
-30.5211
-14.89
-6.01371
-5.96319
-6.86353
-8.28584
-5.07758
-10.6584
-9.16876
8.83353
44.1628
24.4773
-9.11538
-28.4905
53.5433
3.68816
-2.74806
11.3679
2.55328
-22.1005
-13.4958
3.20472
-11.6156
33.2521
57.9015
35.8324
65.6655
6.78618
61.719
5.96506
25.286
9.38973
6.13594
-10.2406
-2.86807
34.5859
58.7038
32.328
58.8168
21.1996
61.0661
30.3434
9.87471
25.1608
12.1097
19.5676
-0.73658
23.7191
8.93037
63.873
62.0903
62.9668
55.556
56.8305
29.1527
59.3536
32.2784
53.459
33.931
11.7008
25.3293
11.9565
29.4582
14.2141
5.7952
10.6313
5.13674
12.2563
7.80034
1.17919
2.97946
0.76568
5.66538
0.553182
55.8884
53.6192
33.3721
30.4765
14.5828
13.3073
7.85769
6.38571
0.329449
44.9731
46.1919
38.5719
40.8146
40.5189
38.1526
25.754
37.8547
23.5994
37.1712
28.5414
16.0831
11.1416
21.4595
10.6034
16.9542
9.66434
7.56419
3.20026
9.96054
4.56477
6.04684
3.15942
0.700662
-0.725477
4.11889
0.625516
0.560701
-0.560433
19.6504
46.8993
18.8529
38.202
30.958
38.663
30.6541
7.66291
13.072
3.16836
17.7993
9.12954
17.5662
9.0181
16.2905
39.9685
28.123
34.5538
21.1159
2.95096
15.0063
6.73282
7.78686
0.70114
30.0554
-11.246
30.2136
9.90793
-11.3391
-23.5092
-10.795
-11.0632
3.88459
-4.14032
-19.7009
-12.9307
35.0393
266.719
-165.051
144.416
-32.2459
349.803
465.557
-15.1274
-143.651
-25.7468
-72.9676
-38.3671
467.822
471.456
-12.8737
-21.4135
-11.5469
-28.2276
-14.5308
471.231
-8.89903
-8.92203
-6.95174
-10.9739
-8.86162
-6.50485
-2.55577
-5.32756
-1.5939
-4.89388
-2.37037
-5.12668
-0.207842
-24.7823
468.256
469.826
468.274
471.293
465.253
468.294
-11.3576
469.843
427.537
471.143
450.864
467.692
449.464
-6.79633
428.871
261.109
464.307
-6.81511
452.624
200.41
-0.408234
258.383
12.2659
-6.55719
0.0321721
238.689
0.588286
577.689
469.09
458.126
467.956
392.36
468.224
403.683
242.217
442.752
239.601
444.395
246.522
475.227
182.506
5.02947
281.824
266.458
1.56009
245.826
-58.089
417.868
471.664
447.188
469.053
479.71
462.224
524.626
197.133
471.328
235.885
471.466
192.297
440.967
157.604
1.63613
326.475
-27.3467
228.892
330.335
620.299
466.044
622.208
454.379
465.636
449.082
416.017
192.263
467.761
209.748
391.227
163.479
365.161
275.26
-29.1056
221.354
-25.4524
228.188
251.922
391.899
454.647
450.286
453.825
450.36
460.873
451.625
455.043
464.044
458.923
466.744
461.954
454.257
460.312
449.764
501.403
468.297
518.97
448.689
414.976
450.295
400.895
179.685
476.888
55.7878
369.437
272.413
337.588
264.146
179.709
249.484
359.582
263.777
519.822
483.738
469.449
251.863
458.027
421.578
466.822
475.649
210.218
439.071
224.68
329.354
205.79
476.097
230.335
470.752
0.130592
237.508
500.471
258.493
416.877
463.574
437.575
465.613
601.402
463.081
424.835
233.448
447.711
284.234
474.64
220.629
446.901
165.429
-14.1042
241.827
7.62312
304.451
193.202
7.96155
465.409
464.54
470.462
459.962
464.483
465.598
467.995
466.118
470.15
462.789
469.593
467.092
382.587
264.924
-5.47667
447.956
207.201
364.525
258.941
8.59743
-5.65473
-0.439895
226.761
-0.943194
256.266
0.383585
441.212
208.092
-26.0329
362.335
450.979
206.895
-163.006
470.827
-118.249
-49.7642
468.03
470.636
-210.049
-51.2058
-9.83657
-32.8835
-15.7062
469.148
358.93
-35.9701
-14.5503
-5.33249
-12.9686
-7.97526
411.812
268.485
-11.0033
-6.65782
-0.513894
-4.77756
-1.86479
0.104582
-4.49995
-1.76551
-34.0808
76.8407
-123.197
-49.2067
45.4028
0.812428
-17.4307
-12.133
-34.306
-15.8312
-2.51385
-10.72
59.6009
19.8042
53.4496
14.7862
56.0876
36.4006
17.6189
-1.64225
7.99611
-6.33839
17.0247
4.65254
26.3191
58.3669
32.3215
55.3309
42.7345
53.868
43.9472
3.70085
25.2387
9.90856
25.3219
13.2497
27.4723
16.682
59.9177
55.3583
57.4944
58.7252
56.877
56.1906
56.5309
37.9031
52.3822
34.5116
51.9835
40.6669
51.6208
34.2047
17.0496
29.911
15.5823
25.617
16.8982
29.6108
18.606
5.07262
12.8772
7.85762
11.1398
5.27096
15.8792
6.89695
0.173735
5.84862
-0.213508
2.03575
0.336534
5.42566
0.277839
55.6849
53.5375
53.9583
33.355
50.8961
34.2924
15.3607
32.0881
17.6379
8.02159
15.9889
7.02951
0.276181
5.98966
0.150318
24.6599
23.1278
8.64145
8.5632
3.99621
3.85815
0.730911
37.9229
39.604
39.3433
31.5088
34.2366
39.1439
38.4124
23.9032
36.7795
30.8595
34.565
24.5853
35.9668
31.0044
10.1943
17.8055
9.21088
20.7329
9.41097
18.6906
9.28276
4.63498
5.02163
1.69348
7.47227
4.89395
3.01991
-0.144825
0.533871
0.448438
-0.133355
3.40964
0.973944
-0.0592068
-0.255101
-44.0078
469.035
471.495
-133.151
-48.7644
470.381
471.105
-13.5967
471.016
-32.0929
-9.90684
470.669
466.152
-7.97144
-5.89458
-8.08678
-7.63296
469.407
-4.30141
-2.42397
-4.55689
-0.401312
-4.08145
-1.84963
-4.00001
-0.120498
470.372
463.838
467.33
469.797
470.333
463.581
466.646
450.56
467.56
479.936
469.856
462.163
468.075
443.76
-5.71608
451.924
235.102
469.25
307.873
440.075
271.607
-0.111885
201.238
0.181125
301.367
-4.54268
438.479
467.926
528.897
469.236
419.97
472.543
405.417
196.847
468.015
244.513
468.34
249.69
476.458
228.063
89.3948
-7.04348
309.006
-8.73662
242.189
-26.9889
415.479
453.981
471.776
473.961
415.981
447.323
413.014
245.648
392.859
208.613
487.361
202.863
384.731
270.884
-42.0078
211.11
216.927
-19.313
259.916
404.266
459.362
449.931
462.372
452.815
463.037
450.375
460.985
453.183
462.953
453.976
466.853
458.908
460.677
450.912
439.583
451.791
409.175
453.374
407.905
442.951
419.736
232.614
358.658
272.552
355.051
279.562
355.035
303.909
557.07
225.608
369.078
256.224
402.494
238.27
383.132
462.209
450.767
458.57
450.536
459.278
454.172
461.762
452.198
461.657
445.564
459.123
448.259
461.571
448.944
408.532
447.467
409.853
440.844
414.582
439.17
416.681
269.15
370.592
262.557
353.609
299.662
345.512
294.582
379.293
254.518
450.644
238.428
379.104
231.794
368.606
454.829
450.063
453.543
450.106
460.747
451.041
453.895
445.941
458.261
464.668
462.197
452.578
458.345
461.66
393.18
465.59
498.023
454.429
413.063
461.886
448.101
259.935
480.746
239.428
362.409
277.85
499.485
211.22
526.492
238.686
249.666
422.138
219.456
0.271964
494.832
462.616
449.24
466.715
430.82
465.929
457.612