/*--------------------------------*- C++ -*----------------------------------*\
| =========                 |                                                 |
| \\      /  F ield         | OpenFOAM: The Open Source CFD Toolbox           |
|  \\    /   O peration     | Version:  4.0                                   |
|   \\  /    A nd           | Web:      www.OpenFOAM.org                      |
|    \\/     M anipulation  |                                                 |
\*---------------------------------------------------------------------------*/
FoamFile
{
    version     2.0;
    format      ascii;
    class       volScalarField;
    location    "500";
    object      epsilon;
}
// * * * * * * * * * * * * * * * * * * * * * * * * * * * * * * * * * * * * * //

dimensions      [0 2 -3 0 0 0 0];

internalField   nonuniform List<scalar> 
3072
(
3.55592
3.07025
3.56047
3.57659
3.32935
2.75921
2.77678
4.33992
20.0285
38.2741
46.7614
51.8188
7.02601
6.32842
5.14374
4.85187
5.37496
9.87138
20.36
22.9465
28.2311
33.5383
34.9285
35.6935
8.66465
6.90474
9.00751
13.4454
17.5492
18.1512
19.4545
22.3285
25.8867
27.5962
28.7039
29.8114
12.6401
10.132
13.1484
15.135
16.152
16.7212
19.2979
22.2977
24.4818
25.6847
26.6673
27.6116
14.5776
11.8618
13.7409
14.3262
15.1281
17.1449
20.0025
22.6855
24.4512
25.3734
26.1223
26.8391
15.5338
12.3059
13.4047
14.0487
15.7585
18.5238
21.4084
23.552
24.8875
25.6847
26.3104
26.8843
16.066
12.0293
12.9088
14.6747
17.4639
20.6553
23.3543
25.2413
26.3399
27.0007
27.484
27.9113
16.6541
12.0111
13.6826
17.1258
21.2997
24.9452
27.5642
29.1951
30.0475
30.4551
30.6546
30.7936
18.0879
13.1781
17.7164
24.1803
30.2161
34.4381
36.8828
37.9455
38.0895
37.7169
37.1198
36.4758
20.612
17.8811
30.2022
41.6577
49.75
53.8254
54.827
53.9663
52.1025
49.8114
47.4693
45.277
25.5641
35.9279
61.3993
77.6154
83.7806
83.9369
80.8176
76.1024
70.8238
65.5524
60.6452
56.2511
116.24
109.118
119.577
122.831
120.17
112.98
104.667
96.069
87.7147
79.8358
72.6763
66.3026
55.412
57.1787
57.8549
57.6144
56.7343
53.8212
49.892
43.8711
36.8798
27.8749
18.4687
23.0614
36.2531
36.7607
37.2507
37.8656
38.658
39.983
42.4818
46.4439
51.5527
57.4241
61.4272
74.9674
30.6581
31.3088
31.8014
32.3179
33.2311
34.9601
38.0041
43.034
50.9444
62.9073
81.1846
120.049
28.3399
28.9371
29.4802
30.1041
31.0734
32.8008
35.8702
41.1448
49.9302
64.7592
92.5708
152.303
27.4217
27.9085
28.3648
28.9252
29.833
31.4572
34.3854
39.5593
48.6335
65.0437
99.1662
178.162
27.3586
27.7676
28.1762
28.7037
29.567
31.1156
33.9339
38.9733
47.955
64.9185
102.819
201.501
28.2953
28.6589
29.0432
29.5371
30.3194
31.7169
34.2958
39.0378
47.8009
64.6892
104.94
222.508
30.9229
31.0686
31.2661
31.5834
32.181
33.3347
35.5814
39.9114
48.2344
64.8426
105.902
247.819
35.8901
35.4128
35.0843
34.9901
35.2399
35.9974
37.7844
41.5681
49.3308
65.5454
107.453
277.683
43.3533
41.7496
40.4885
39.6207
39.2795
39.6301
40.8487
43.9557
50.9816
66.5692
109.049
309.554
52.4712
49.3438
46.8499
45.0045
43.8587
43.6925
44.4627
46.8426
52.9253
67.6308
111.158
349.5
60.8207
56.3069
52.71
50.0268
48.2305
47.5073
47.954
49.6555
54.3828
67.5877
111.42
416.531
3.55777
3.07174
3.5617
3.57767
3.33022
2.75981
2.77725
4.34014
20.0285
38.2767
46.7655
51.8235
7.02713
6.32906
5.14395
4.85184
5.3751
9.87122
20.3609
22.9481
28.2328
33.5411
34.9317
35.6968
8.6652
6.90475
9.00681
13.4434
17.5492
18.1529
19.4556
22.3298
25.8884
27.5983
28.7061
29.8138
12.64
10.1317
13.1478
15.135
16.1527
16.7222
19.2986
22.2989
24.4835
25.6867
26.6692
27.6137
14.5774
11.8616
13.741
14.3265
15.1286
17.1456
20.0033
22.6869
24.4529
25.3752
26.1241
26.841
15.5336
12.3061
13.4049
14.0491
15.7591
18.5245
21.4097
23.5536
24.8893
25.6864
26.3122
26.8861
16.0669
12.0298
12.9095
14.6753
17.4649
20.6568
23.3561
25.2432
26.3419
27.0026
27.4859
27.9132
16.656
12.0123
13.6837
17.1274
21.3018
24.9476
27.5668
29.1977
30.05
30.4576
30.6569
30.7958
18.091
13.1798
17.7185
24.1831
30.2196
34.4421
36.8868
37.9493
38.093
37.7202
37.1229
36.4786
20.6159
17.8835
30.2051
41.6615
49.7546
53.8302
54.8318
53.9709
52.1068
49.8153
47.473
45.2805
25.568
35.9305
61.4017
77.6184
83.7843
83.9408
80.8218
76.1066
70.8279
65.5563
60.649
56.2547
116.243
109.118
119.577
122.831
120.17
112.981
104.67
96.0717
87.7177
79.839
72.6796
66.3059
55.4174
57.1843
57.8609
57.6204
56.7404
53.8268
49.8973
43.8756
36.8833
27.8777
18.4709
23.065
36.2565
36.7641
37.2543
37.8692
38.6618
39.9868
42.4858
46.4482
51.5574
57.429
61.433
74.9763
30.6606
31.3114
31.8041
32.3206
33.2339
34.963
38.0071
43.0374
50.9484
62.9123
81.1911
120.059
28.3421
28.9393
29.4824
30.1064
31.0758
32.8032
35.8728
41.1478
49.9339
64.764
92.5779
152.316
27.4237
27.9105
28.3668
28.9273
29.8351
31.4594
34.3878
39.562
48.637
65.0484
99.1735
178.176
27.3604
27.7695
28.1781
28.7056
29.569
31.1177
33.9362
38.976
47.9583
64.923
102.826
201.516
28.2972
28.6609
29.0451
29.539
30.3213
31.719
34.298
39.0404
47.8041
64.6937
104.947
222.525
30.9251
31.0708
31.2682
31.5855
32.1831
33.3368
35.5836
39.914
48.2375
64.847
105.91
247.837
35.8928
35.4154
35.0867
34.9925
35.2422
35.9996
37.7867
41.5707
49.3339
65.5496
107.461
277.704
43.3565
41.7526
40.4913
39.6233
39.2819
39.6325
40.851
43.9582
50.9845
66.5732
109.056
309.577
52.4746
49.347
46.8529
45.0073
43.8613
43.695
44.4651
46.8451
52.9281
67.6346
111.164
349.525
60.8239
56.3099
52.7129
50.0296
48.2331
47.5097
47.9564
49.6579
54.3855
67.5912
111.427
416.561
3.55811
3.07136
3.56176
3.57775
3.33006
2.75968
2.77744
4.34307
20.0455
38.2883
46.7734
51.8318
7.03026
6.33132
5.14651
4.85502
5.37828
9.88126
20.368
22.9515
28.2415
33.5463
34.9355
35.7007
8.67031
6.90944
9.01622
13.4581
17.5536
18.1509
19.4598
22.3353
25.8944
27.6033
28.711
29.818
12.6471
10.1379
13.1555
15.1386
16.1532
16.7247
19.3053
22.3043
24.4881
25.6905
26.6735
27.6176
14.5842
11.8672
13.7449
14.3293
15.132
17.1501
20.0097
22.6916
24.4571
25.3793
26.1286
26.8451
15.5394
12.31
13.4084
14.0527
15.7631
18.5298
21.414
23.5572
24.8929
25.6905
26.3167
26.8904
16.0694
12.032
12.9115
14.6781
17.4678
20.6595
23.3587
25.2458
26.345
27.0065
27.4904
27.9178
16.6552
12.0118
13.6841
17.1276
21.3017
24.9474
27.5669
29.1988
30.0523
30.4609
30.6612
30.8004
18.0862
13.1774
17.7157
24.1792
30.2149
34.4374
36.8835
37.9479
38.0936
37.7224
37.1264
36.4828
20.608
17.8786
30.1989
41.6531
49.7448
53.8215
54.8252
53.9669
52.1053
49.816
47.4752
45.2836
25.5601
35.9251
61.3948
77.6089
83.7738
83.9312
80.8139
76.1012
70.8249
65.5555
60.6498
56.2565
116.25
109.121
119.578
122.827
120.165
112.975
104.663
96.0667
87.7144
79.8372
72.6791
66.3063
55.4247
57.191
57.8667
57.6257
56.7444
53.8298
49.8995
43.8769
36.8843
27.8777
18.4706
23.0643
36.2603
36.7679
37.2571
37.8715
38.6637
39.9882
42.4868
46.449
51.5579
57.4295
61.4327
74.9753
30.6647
31.315
31.8074
32.3235
33.2365
34.9652
38.0092
43.0393
50.9502
62.914
81.1922
120.06
28.3459
28.9431
29.486
30.1097
31.0789
32.8062
35.8756
41.1505
49.9364
64.7665
92.5806
152.319
27.4277
27.9144
28.3707
28.931
29.8387
31.4629
34.3912
39.5653
48.6402
65.0516
99.1772
178.182
27.3647
27.7737
28.1822
28.7096
29.5729
31.1215
33.9398
38.9796
47.9621
64.927
102.831
201.524
28.3017
28.6653
29.0495
29.5433
30.3255
31.723
34.3019
39.0442
47.8081
64.698
104.952
222.535
30.9298
31.0755
31.2727
31.5899
32.1873
33.3409
35.5876
39.9179
48.2417
64.8516
105.915
247.849
35.8972
35.4199
35.0911
34.9967
35.2462
36.0036
37.7906
41.5746
49.338
65.5543
107.467
277.718
43.3601
41.7564
40.4951
39.6271
39.2856
39.6361
40.8546
43.9619
50.9885
66.5778
109.063
309.593
52.477
49.3498
46.8558
45.0102
43.8643
43.6979
44.4681
46.8483
52.9317
67.639
111.171
349.544
60.825
56.3114
52.7147
50.0315
48.2351
47.5118
47.9586
49.6603
54.3883
67.5948
111.433
416.585
3.55823
3.07185
3.56213
3.57813
3.33059
2.76013
2.77771
4.34191
20.0377
38.2843
46.7718
51.8301
7.0292
6.33061
5.14554
4.85374
5.37719
9.87693
20.3657
22.9511
28.2384
33.5453
34.9352
35.7004
8.66828
6.9074
9.0116
13.4507
17.5526
18.1537
19.4588
22.3335
25.8924
27.6018
28.7096
29.8169
12.6439
10.1351
13.1521
15.1378
16.1545
16.7244
19.3024
22.3024
24.4866
25.6895
26.6723
27.6166
14.5811
11.8648
13.7438
14.3289
15.1311
17.1485
20.0069
22.6899
24.4557
25.378
26.1271
26.8439
15.5366
12.3085
13.4074
14.0515
15.7617
18.5276
21.4125
23.5561
24.8919
25.6892
26.3152
26.889
16.0687
12.0315
12.9111
14.6773
17.467
20.6589
23.3582
25.2453
26.3442
27.0053
27.4888
27.9162
16.6564
12.0128
13.6847
17.1284
21.3028
24.9487
27.568
29.1992
30.052
30.46
30.6597
30.7987
18.09
13.1797
17.7184
24.1829
30.2192
34.4417
36.8869
37.95
38.0944
37.7221
37.1253
36.4813
20.6141
17.8827
30.2044
41.6602
49.7529
53.8288
54.8309
53.9707
52.1073
49.8166
47.4747
45.2825
25.5668
35.9306
61.4018
77.6175
83.7827
83.9392
80.8204
76.1057
70.8277
65.5567
60.65
56.256
116.254
109.125
119.581
122.833
120.171
112.981
104.669
96.0709
87.7172
79.8389
72.6798
66.3065
55.4238
57.1905
57.8667
57.6259
56.7453
53.831
49.9008
43.8783
36.8854
27.8789
18.4716
23.0661
36.26
36.7676
37.2573
37.872
38.6644
39.9892
42.4881
46.4505
51.5597
57.4314
61.4353
74.9793
30.6637
31.3143
31.8069
32.3232
33.2364
34.9653
38.0094
43.0398
50.9509
62.9151
81.1944
120.064
28.3449
28.9421
29.4852
30.109
31.0784
32.8057
35.8753
41.1504
49.9366
64.7671
92.5819
152.323
27.4265
27.9133
28.3696
28.93
29.8378
31.4621
34.3905
39.5648
48.6399
65.0517
99.1779
178.185
27.3633
27.7724
28.181
28.7084
29.5718
31.1205
33.939
38.9789
47.9615
64.9266
102.831
201.526
28.3001
28.6638
29.048
29.5419
30.3242
31.7219
34.301
39.0434
47.8074
64.6975
104.952
222.536
30.9281
31.0737
31.2711
31.5884
32.1859
33.3397
35.5866
39.9171
48.241
64.851
105.915
247.85
35.8956
35.4182
35.0895
34.9952
35.2449
36.0024
37.7896
41.5738
49.3373
65.5537
107.466
277.718
43.3587
41.755
40.4937
39.6258
39.2845
39.6351
40.8538
43.9612
50.9878
66.5772
109.062
309.592
52.4762
49.3488
46.8548
45.0094
43.8635
43.6973
44.4676
46.8478
52.9312
67.6383
111.17
349.542
60.8248
56.3112
52.7144
50.0313
48.235
47.5117
47.9585
49.6601
54.388
67.5942
111.432
416.579
156.019
147.586
139.184
130.979
123.861
116.442
108.813
101.038
93.2145
85.4253
78.0561
71.2319
97.1153
98.4388
98.465
97.8901
96.9367
95.2266
92.8819
89.6846
85.3362
79.9999
74.5272
69.016
69.1841
70.5743
71.4301
71.8926
72.198
72.0936
71.6009
70.5981
69.0187
67.0408
64.5186
61.31
54.7332
55.2305
55.386
55.3178
55.2253
55.0978
54.9095
54.6135
54.1568
53.5357
52.7514
51.8517
65.1991
60.2217
56.2475
53.2844
51.3047
50.2945
50.4935
51.5516
54.6651
63.2228
86.4148
170.325
63.9192
59.7643
56.4665
54.0369
52.4016
51.4143
51.4164
51.9677
53.6811
57.9273
68.3658
92.8546
58.2029
55.8136
53.8604
52.3627
51.2442
50.4081
50.1032
50.2076
51.0899
52.8804
57.6401
66.3348
51.1264
50.3296
49.3201
48.2662
47.2741
46.4371
46.0346
46.029
46.7255
47.6778
50.0867
53.4986
156.01
147.581
139.18
130.977
123.86
116.442
108.814
101.04
93.2165
85.4276
78.0585
71.2345
97.1112
98.4358
98.4631
97.889
96.9364
95.2268
92.8824
89.6855
85.3376
80.0015
74.529
69.018
69.1818
70.5725
71.429
71.892
72.198
72.094
71.6016
70.599
69.0197
67.042
64.52
61.3117
54.7307
55.2289
55.3855
55.3178
55.2258
55.0985
54.9105
54.6146
54.158
53.537
52.7529
51.8533
65.2018
60.2243
56.2501
53.2869
51.3071
50.2968
50.4958
51.5539
54.6675
63.2257
86.4191
170.334
63.9214
59.7666
56.4688
54.0392
52.4038
51.4164
51.4185
51.9699
53.6833
57.9299
68.369
92.8591
58.2047
55.8155
53.8624
52.3648
51.2462
50.4102
50.1053
50.2097
51.092
52.8827
57.6427
66.3379
51.1281
50.3314
49.3219
48.2681
47.276
46.439
46.0366
46.031
46.7276
47.6799
50.0889
53.501
156.018
147.588
139.185
130.979
123.859
116.439
108.811
101.036
93.2136
85.4255
78.0573
71.234
97.1157
98.4407
98.4674
97.8921
96.938
95.2269
92.8818
89.6841
85.3355
79.9997
74.5276
69.0169
69.185
70.576
71.4324
71.8951
72.1999
72.0952
71.602
70.5989
69.0192
67.0411
64.5188
61.3103
54.7331
55.2314
55.3878
55.3199
55.2274
55.0997
54.9111
54.6149
54.1578
53.5365
52.7522
51.8525
65.2017
60.2246
56.2506
53.2877
51.3081
50.2979
50.497
51.5553
54.6694
63.2283
86.4232
170.344
63.9205
59.7659
56.4684
54.039
52.4039
51.4168
51.419
51.9707
53.6844
57.9316
68.3717
92.864
58.2035
55.8145
53.8615
52.3641
51.2458
50.4099
50.1055
50.2102
51.0929
52.8841
57.6449
66.3412
51.1273
50.3306
49.3213
48.2677
47.2759
46.4393
46.0375
46.0322
46.7292
47.6821
50.0917
53.5044
156.026
147.592
139.188
130.983
123.864
116.444
108.816
101.041
93.2168
85.4279
78.0589
71.2351
97.1212
98.4455
98.4717
97.8965
96.9426
95.2318
92.8867
89.6887
85.3395
80.0031
74.5304
69.0193
69.189
70.5801
71.4365
71.8993
72.2045
72.1
71.6069
70.6038
69.024
67.0456
64.5229
61.3139
54.7369
55.2354
55.392
55.3242
55.2319
55.1043
54.9159
54.6196
54.1625
53.541
52.7564
51.8564
65.2026
60.2254
56.2514
53.2884
51.3088
50.2985
50.4975
51.5557
54.6695
63.2279
86.422
170.34
63.9226
59.768
56.4703
54.0408
52.4054
51.4179
51.4199
51.9713
53.6846
57.9313
68.3708
92.8622
58.2069
55.8176
53.8643
52.3665
51.2477
50.4113
50.1062
50.2106
51.0929
52.8837
57.644
66.34
51.1308
50.3336
49.3237
48.2695
47.2771
46.4398
46.0373
46.0318
46.7284
47.681
50.0904
53.5036
45.3235
44.9503
44.5353
44.1637
43.9479
43.8249
43.7685
43.7817
43.8515
43.9935
44.1896
44.3881
38.0518
37.6061
37.2431
37.0062
36.9195
36.9403
37.0669
37.3472
37.7795
38.3065
38.799
39.0416
32.6354
32.4233
32.2978
32.2583
32.2774
32.3318
32.4637
32.8193
33.4488
34.3366
35.431
36.2588
28.4798
28.5453
28.6488
28.7458
28.7838
28.7357
28.7052
28.8347
29.3597
30.4946
32.9007
37.2673
44.4404
42.6844
41.072
40.2795
39.8764
39.9468
40.5312
41.4337
42.6072
43.8056
45.0804
45.7807
38.8001
35.3255
33.2664
32.7524
32.963
33.7693
34.9937
36.3633
37.5748
38.4637
39.0651
38.9002
36.5046
29.739
27.1426
26.746
27.3059
28.486
29.9911
31.4298
32.525
33.2327
33.5504
33.2423
41.5146
25.8635
22.3435
21.9175
22.6428
23.9492
25.494
26.8714
27.8769
28.5156
28.8025
28.6903
45.3229
44.9504
44.5361
44.1648
43.9492
43.8262
43.77
43.7832
43.8531
43.9953
44.1915
44.3901
38.0522
37.6071
37.2446
37.0077
36.9211
36.9419
37.0686
37.3489
37.7813
38.3084
38.8012
39.0439
32.6364
32.4246
32.2994
32.2601
32.2791
32.3335
32.4653
32.821
33.4505
34.3386
35.4334
36.2615
28.4811
28.5468
28.6505
28.7475
28.7856
28.7374
28.7068
28.8362
29.3613
30.4963
32.903
37.2703
44.4424
42.6862
41.0738
40.2813
39.8782
39.9485
40.5329
41.4353
42.6089
43.8073
45.0821
45.7824
38.8024
35.3275
33.2682
32.754
32.9645
33.7707
34.9951
36.3646
37.576
38.4649
39.0663
38.9013
36.5073
29.741
27.1442
26.7473
27.3071
28.4871
29.9921
31.4307
32.5258
33.2335
33.5512
33.2431
41.5182
25.8654
22.3449
21.9186
22.6438
23.9501
25.4947
26.8721
27.8775
28.5162
28.8031
28.6909
45.3246
44.952
44.5374
44.1658
43.9499
43.8266
43.7701
43.7831
43.8528
43.995
44.1913
44.3901
38.0533
37.6081
37.2453
37.0082
36.9213
36.942
37.0686
37.3489
37.7814
38.3089
38.8021
39.0454
32.6371
32.4252
32.2998
32.2603
32.2794
32.3338
32.4656
32.8216
33.4514
34.3399
35.4358
36.265
28.4816
28.5472
28.6508
28.7478
28.7859
28.7379
28.7075
28.8374
29.3629
30.4988
32.9066
37.2757
44.4428
42.6868
41.0747
40.2826
39.88
39.9507
40.5355
41.4383
42.6121
43.8108
45.086
45.7865
38.8047
35.3296
33.2706
32.7568
32.9677
33.7743
34.9989
36.3686
37.5802
38.4692
39.0707
38.9056
36.5114
29.7446
27.1478
26.7511
27.3111
28.4913
29.9965
31.4352
32.5303
33.238
33.5556
33.2472
41.5259
25.87
22.349
21.9228
22.6481
23.9546
25.4993
26.8767
27.882
28.5205
28.8072
28.6946
45.3287
44.9562
44.5417
44.1701
43.9541
43.8308
43.7741
43.7869
43.8564
43.9981
44.1939
44.392
38.0575
37.6121
37.2492
37.0119
36.9249
36.9454
37.0716
37.3514
37.7834
38.3101
38.8025
39.0451
32.641
32.4288
32.3032
32.2634
32.2821
32.3361
32.4675
32.8225
33.4517
34.3394
35.4341
36.2623
28.4849
28.5502
28.6535
28.7502
28.7878
28.7391
28.7081
28.837
29.3617
30.4965
32.9032
37.271
44.444
42.6874
41.0748
40.2822
39.8791
39.9495
40.534
41.4366
42.6104
43.8091
45.0846
45.7851
38.8034
35.3284
33.2692
32.7551
32.9658
33.7721
34.9966
36.3663
37.578
38.4672
39.0689
38.9039
36.5081
29.742
27.1454
26.7487
27.3086
28.4888
29.9939
31.4327
32.528
33.2358
33.5536
33.2453
41.5196
25.8665
22.3462
21.9201
22.6454
23.9519
25.4966
26.8741
27.8796
28.5183
28.8053
28.6927
25.0686
25.3591
25.6292
25.7943
25.7625
25.4485
24.961
24.4095
23.9124
23.5485
23.7376
27.4314
22.0718
22.5222
22.8886
23.0642
22.8822
22.2074
21.0769
19.4797
17.2728
13.9735
8.32087
3.35322
19.3243
19.871
20.2777
20.4278
20.0818
19.0706
17.3612
14.901
11.5833
7.34664
3.1908
1.93538
16.7602
17.3503
17.767
17.8822
17.419
16.1994
14.1674
11.3443
7.88345
4.34699
2.05469
1.8095
14.3789
14.9748
15.386
15.4752
14.9694
13.7034
11.6342
8.89288
5.84912
3.24336
1.79628
1.77084
12.211
12.787
13.185
13.2636
12.7842
11.6087
9.70913
7.29284
4.80207
2.86222
1.76715
1.69135
10.2972
10.8366
11.2171
11.2979
10.889
9.89309
8.26826
6.25246
4.26044
2.75517
1.81876
1.52901
8.68229
9.17649
9.5365
9.62345
9.30707
8.52679
7.20132
5.56812
3.9768
2.749
1.88896
1.30939
7.42393
7.87347
8.21234
8.31109
8.08622
7.50184
6.45294
5.14442
3.85725
2.80134
1.93797
1.03486
6.6442
7.06605
7.39689
7.51236
7.36363
6.91523
6.07818
5.01438
3.90522
2.9181
1.95529
0.725349
6.84077
7.29989
7.67323
7.82426
7.70999
7.27594
6.53006
5.56477
4.4296
3.26172
1.94607
0.412832
12.7535
13.7541
14.6304
14.9987
14.7606
13.8993
12.4662
10.4488
7.8471
4.89037
2.29453
0.54726
68.3161
22.5312
18.2788
17.9244
18.7276
20.0264
21.4915
22.7799
23.7392
24.3791
24.7578
24.9162
41.0608
17.4453
14.6657
14.5724
15.4123
16.6376
17.9744
19.1649
20.0912
20.7676
21.2604
21.6518
28.9756
13.4509
11.6682
11.7835
12.612
13.7305
14.9234
16.0077
16.8891
17.5925
18.1844
18.7441
21.259
10.4387
9.2584
9.48684
10.2665
11.2631
12.3104
13.2823
14.1064
14.8097
15.454
16.101
15.7743
8.16023
7.3399
7.61327
8.32267
9.19526
10.1029
10.9574
11.7131
12.3885
13.0345
13.7006
11.6426
6.41082
5.81617
6.0973
6.7315
7.48703
8.26434
9.00539
9.68209
10.3061
10.9184
11.5577
8.52026
5.06769
4.60684
4.87874
5.44831
6.10111
6.76175
7.39752
7.99201
8.55269
9.11116
9.69672
6.17294
3.99907
3.6449
3.90619
4.43456
5.0061
5.56854
6.11188
6.62978
7.12633
7.62443
8.1462
4.33267
3.07892
2.86804
3.14699
3.66589
4.18436
4.67244
5.14229
5.59814
6.0409
6.48523
6.94803
2.84508
2.24968
2.24316
2.61361
3.17642
3.68445
4.12944
4.5492
4.96216
5.36707
5.7807
6.20698
1.68528
1.55579
1.84091
2.44271
3.11322
3.66774
4.13172
4.573
5.01975
5.46106
5.9136
6.37323
1.24447
1.67362
2.97906
4.34978
5.41791
6.28029
7.07153
7.93615
8.91629
9.89377
10.8383
11.7785
25.0698
25.3606
25.6308
25.7961
25.7642
25.4502
24.9626
24.4109
23.9138
23.5499
23.7393
27.4344
22.073
22.5236
22.8902
23.0659
22.8839
22.2091
21.0785
19.4811
17.274
13.9746
8.32189
3.35405
19.3253
19.8723
20.2792
20.4295
20.0835
19.0723
17.3627
14.9024
11.5845
7.34764
3.19152
1.93601
16.7612
17.3515
17.7684
17.8838
17.4207
16.2011
14.169
11.3457
7.88462
4.34786
2.05525
1.81011
14.3798
14.976
15.3874
15.4767
14.971
13.705
11.6357
8.89422
5.8502
3.24412
1.79677
1.77142
12.2118
12.788
13.1862
13.265
12.7857
11.6102
9.71057
7.2941
4.80306
2.86291
1.76761
1.6919
10.2981
10.8376
11.2183
11.2991
10.8903
9.89451
8.26961
6.25362
4.26135
2.75582
1.81921
1.52949
8.6831
9.1774
9.53754
9.62462
9.30834
8.52809
7.20258
5.5692
3.97765
2.74962
1.88941
1.30979
7.42474
7.87435
8.21334
8.3122
8.0874
7.50305
6.45412
5.14544
3.85808
2.80196
1.93843
1.03516
6.64504
7.06695
7.39789
7.51345
7.36478
6.91642
6.07933
5.01538
3.90605
2.91874
1.95575
0.725555
6.84159
7.30093
7.67437
7.82549
7.7113
7.27727
6.53134
5.5659
4.43058
3.26245
1.94653
0.412942
12.7553
13.7563
14.6327
15.0012
14.7633
13.902
12.4687
10.451
7.84894
4.89154
2.29508
0.547379
68.3234
22.5329
18.2799
17.9254
18.7284
20.0271
21.4921
22.7804
23.7397
24.3796
24.7582
24.9166
41.065
17.4467
14.6666
14.5732
15.4129
16.6381
17.9749
19.1653
20.0916
20.7679
21.2608
21.6522
28.9785
13.4521
11.669
11.7842
12.6126
13.731
14.9238
16.0081
16.8895
17.5928
18.1848
18.7444
21.2611
10.4396
9.25911
9.48744
10.2671
11.2636
12.3108
13.2827
14.1068
14.8101
15.4544
16.1014
15.7759
8.161
7.34053
7.61383
8.32318
9.19574
10.1033
10.9579
11.7135
12.3889
13.0349
13.7011
11.6438
6.41145
5.81672
6.09783
6.73201
7.48752
8.26481
9.00585
9.68254
10.3065
10.9189
11.5582
8.52114
5.06821
4.60732
4.87923
5.44882
6.10161
6.76224
7.39801
7.99249
8.55317
9.11164
9.6972
6.17358
3.99949
3.64532
3.90666
4.43506
5.00661
5.56905
6.11239
6.63028
7.12683
7.62493
8.1467
4.33312
3.07925
2.8684
3.14744
3.66639
4.18489
4.67297
5.14282
5.59867
6.04142
6.48575
6.94856
2.84537
2.24992
2.24347
2.61405
3.17694
3.685
4.12999
4.54975
4.96272
5.36762
5.78126
6.20755
1.68545
1.55597
1.84121
2.44318
3.1138
3.66836
4.13235
4.57363
5.02039
5.46171
5.91425
6.37389
1.24456
1.67383
2.97965
4.35066
5.41893
6.28135
7.07259
7.93726
8.91748
9.89499
10.8395
11.7798
25.0702
25.3609
25.6312
25.7965
25.7648
25.4509
24.9636
24.4124
23.9157
23.5525
23.7423
27.4372
22.0733
22.524
22.8906
23.0664
22.8846
22.21
21.0797
19.4825
17.2757
13.9762
8.32267
3.35405
19.3257
19.8728
20.2797
20.4301
20.0843
19.0733
17.3639
14.9035
11.5856
7.34827
3.1916
1.93592
16.7616
17.352
17.7689
17.8844
17.4214
16.202
14.1699
11.3466
7.88522
4.34807
2.05524
1.81002
14.3803
14.9765
15.3879
15.4773
14.9718
13.7059
11.6365
8.89483
5.85055
3.24421
1.79677
1.77134
12.2123
12.7886
13.1868
13.2656
12.7864
11.6109
9.71121
7.29455
4.80329
2.86297
1.76762
1.69184
10.2986
10.8381
11.2188
11.2997
10.891
9.89513
8.27015
6.25398
4.26154
2.75589
1.81923
1.52945
8.68362
9.17793
9.5381
9.6252
9.30894
8.52865
7.20304
5.5695
3.97783
2.74971
1.88945
1.30977
7.42528
7.87489
8.21389
8.31274
8.08797
7.50355
6.45455
5.14572
3.85826
2.80206
1.93848
1.03516
6.64561
7.06752
7.39845
7.514
7.36532
6.9169
6.07974
5.01566
3.90624
2.91886
1.9558
0.725551
6.84225
7.30158
7.675
7.82609
7.71188
7.27777
6.53178
5.56621
4.43078
3.26259
1.94659
0.412944
12.7566
13.7575
14.6339
15.0023
14.7643
13.9029
12.4695
10.4516
7.8493
4.89173
2.29515
0.547398
68.3386
22.5381
18.2842
17.9296
18.7328
20.0316
21.4967
22.7848
23.7439
24.3836
24.762
24.9199
41.0763
17.4515
14.6707
14.5772
15.4171
16.6424
17.9791
19.1694
20.0955
20.7716
21.2641
21.655
28.9875
13.4563
11.6727
11.7879
12.6164
13.7349
14.9277
16.0118
16.893
17.5961
18.1876
18.7468
21.2682
10.4432
9.26231
9.49069
10.2705
11.2671
12.3143
13.286
14.1099
14.8129
15.4568
16.1034
15.7815
8.16397
7.34327
7.61664
8.32612
9.19876
10.1063
10.9607
11.7162
12.3913
13.0369
13.7027
11.6481
6.41391
5.81903
6.10022
6.73453
7.49012
8.26739
9.00831
9.68481
10.3086
10.9206
11.5596
8.52435
5.07023
4.60924
4.88124
5.45095
6.10383
6.76445
7.40011
7.99443
8.55489
9.11309
9.69835
6.17595
4.00113
3.64689
3.90832
4.43686
5.0085
5.57094
6.1142
6.63194
7.1283
7.62617
8.14767
4.33479
3.08054
2.86967
3.14881
3.66792
4.18652
4.67462
5.1444
5.60012
6.04271
6.48684
6.94941
2.84646
2.25087
2.24448
2.61522
3.17829
3.68648
4.1315
4.55121
4.96405
5.36882
5.78227
6.20834
1.68608
1.55663
1.84207
2.44431
3.11517
3.6699
4.13394
4.57518
5.02182
5.46299
5.91535
6.37475
1.245
1.67448
2.98118
4.35275
5.42149
6.28422
7.07558
7.94015
8.92017
9.89746
10.8417
11.7816
25.073
25.3633
25.6332
25.7981
25.7658
25.4513
24.9633
24.4112
23.9137
23.5497
23.7391
27.4346
22.0756
22.5257
22.892
23.0674
22.8849
22.2097
21.0788
19.4811
17.2739
13.9745
8.32195
3.35411
19.3275
19.874
20.2806
20.4305
20.0841
19.0726
17.3628
14.9023
11.5845
7.34766
3.19158
1.93602
16.763
17.3529
17.7694
17.8845
17.421
16.2012
14.1689
11.3456
7.88459
4.3479
2.05525
1.81009
14.3814
14.9771
15.3882
15.4772
14.9712
13.705
11.6356
8.89413
5.85017
3.24412
1.79674
1.7714
12.2132
12.789
13.1869
13.2654
12.7858
11.6101
9.71043
7.29399
4.803
2.86287
1.76756
1.69184
10.2993
10.8385
11.2188
11.2994
10.8904
9.89441
8.26945
6.2535
4.26127
2.75575
1.81914
1.52944
8.68426
9.17825
9.53809
9.62489
9.30842
8.52802
7.20242
5.56907
3.97755
2.74953
1.88932
1.30972
7.42585
7.87518
8.21389
8.31249
8.08753
7.50302
6.45399
5.14532
3.85797
2.80185
1.93832
1.03511
6.64617
7.06783
7.39849
7.51379
7.36497
6.91644
6.07925
5.01528
3.90594
2.91862
1.95562
0.725508
6.84289
7.30197
7.67511
7.82595
7.71154
7.27735
6.53131
5.56582
4.43043
3.2623
1.9464
0.41291
12.758
13.7584
14.6343
15.002
14.7638
13.9022
12.4687
10.4509
7.84863
4.89128
2.29491
0.547327
68.3269
22.5343
18.2813
17.9268
18.7301
20.0289
21.494
22.7823
23.7416
24.3815
24.7602
24.918
41.0678
17.448
14.6679
14.5746
15.4145
16.6398
17.9766
19.167
20.0934
20.7697
21.2627
21.653
28.9808
13.4532
11.6701
11.7854
12.614
13.7325
14.9254
16.0096
16.891
17.5945
18.1863
18.745
21.2629
10.4406
9.26004
9.48848
10.2683
11.2649
12.3121
13.284
14.1082
14.8114
15.4556
16.1019
15.7773
8.16176
7.34127
7.61467
8.32414
9.19679
10.1044
10.959
11.7146
12.3899
13.0358
13.7016
11.6449
6.41207
5.81731
6.09848
6.73276
7.48836
8.26569
9.00673
9.6834
10.3073
10.9196
11.5586
8.52195
5.06871
4.60777
4.87972
5.44938
6.10225
6.76293
7.39871
7.99317
8.5538
9.11219
9.69751
6.17417
3.99989
3.64566
3.907
4.43546
5.00708
5.56958
6.11293
6.63082
7.12733
7.62536
8.14692
4.33355
3.07956
2.86866
3.14766
3.66665
4.18522
4.67336
5.14324
5.5991
6.04183
6.48609
6.94869
2.84566
2.25015
2.24365
2.61418
3.17711
3.68523
4.13029
4.5501
4.96307
5.36797
5.78155
6.20762
1.68562
1.55612
1.84134
2.44327
3.11392
3.66856
4.13263
4.57397
5.02075
5.46207
5.91455
6.37387
1.2447
1.67396
2.97982
4.35082
5.4192
6.28182
7.07323
7.93795
8.91815
9.89569
10.8402
11.7798
)
;

boundaryField
{
    rotor
    {
        Cmu             0.09;
        kappa           0.41;
        E               9.8;
        type            epsilonWallFunction;
        value           nonuniform List<scalar> 
192
(
3.55592
3.07025
3.56047
3.57659
3.32935
2.75921
2.77678
4.33992
20.0285
38.2741
46.7614
51.8188
55.412
57.1787
57.8549
57.6144
56.7343
53.8212
49.892
43.8711
36.8798
27.8749
18.4687
23.0614
3.55777
3.07174
3.5617
3.57767
3.33022
2.75981
2.77725
4.34014
20.0285
38.2767
46.7655
51.8235
55.4174
57.1843
57.8609
57.6204
56.7404
53.8268
49.8973
43.8756
36.8833
27.8777
18.4709
23.065
3.55811
3.07136
3.56176
3.57775
3.33006
2.75968
2.77744
4.34307
20.0455
38.2883
46.7734
51.8318
55.4247
57.191
57.8667
57.6257
56.7444
53.8298
49.8995
43.8769
36.8843
27.8777
18.4706
23.0643
3.55823
3.07185
3.56213
3.57813
3.33059
2.76013
2.77771
4.34191
20.0377
38.2843
46.7718
51.8301
55.4238
57.1905
57.8667
57.6259
56.7453
53.831
49.9008
43.8783
36.8854
27.8789
18.4716
23.0661
3.55592
7.02601
8.66465
12.6401
14.5776
15.5338
16.066
16.6541
18.0879
20.612
25.5641
116.24
23.0661
74.9793
120.064
152.323
178.185
201.526
222.536
247.85
277.718
309.592
349.542
416.579
3.55777
7.02713
8.6652
12.64
14.5774
15.5336
16.0669
16.656
18.091
20.6159
25.568
116.243
23.0614
74.9674
120.049
152.303
178.162
201.501
222.508
247.819
277.683
309.554
349.5
416.531
3.55811
7.03026
8.67031
12.6471
14.5842
15.5394
16.0694
16.6552
18.0862
20.608
25.5601
116.25
23.065
74.9763
120.059
152.316
178.176
201.516
222.525
247.837
277.704
309.577
349.525
416.561
3.55823
7.0292
8.66828
12.6439
14.5811
15.5366
16.0687
16.6564
18.09
20.6141
25.5668
116.254
23.0643
74.9753
120.06
152.319
178.182
201.524
222.535
247.849
277.718
309.593
349.544
416.585
)
;
    }
    stator
    {
        Cmu             0.09;
        kappa           0.41;
        E               9.8;
        type            epsilonWallFunction;
        value           nonuniform List<scalar> 
192
(
12.7535
13.7541
14.6304
14.9987
14.7606
13.8993
12.4662
10.4488
7.8471
4.89037
2.29453
0.54726
1.24447
1.67362
2.97906
4.34978
5.41791
6.28029
7.07153
7.93615
8.91629
9.89377
10.8383
11.7785
12.7553
13.7563
14.6327
15.0012
14.7633
13.902
12.4687
10.451
7.84894
4.89154
2.29508
0.547379
1.24456
1.67383
2.97965
4.35066
5.41893
6.28135
7.07259
7.93726
8.91748
9.89499
10.8395
11.7798
12.7566
13.7575
14.6339
15.0023
14.7643
13.9029
12.4695
10.4516
7.8493
4.89173
2.29515
0.547398
1.245
1.67448
2.98118
4.35275
5.42149
6.28422
7.07558
7.94015
8.92017
9.89746
10.8417
11.7816
12.758
13.7584
14.6343
15.002
14.7638
13.9022
12.4687
10.4509
7.84863
4.89128
2.29491
0.547327
1.2447
1.67396
2.97982
4.35082
5.4192
6.28182
7.07323
7.93795
8.91815
9.89569
10.8402
11.7798
68.3161
41.0608
28.9756
21.259
15.7743
11.6426
8.52026
6.17294
4.33267
2.84508
1.68528
1.24447
27.4314
3.35322
1.93538
1.8095
1.77084
1.69135
1.52901
1.30939
1.03486
0.725349
0.412832
0.54726
68.3234
41.065
28.9785
21.2611
15.7759
11.6438
8.52114
6.17358
4.33312
2.84537
1.68545
1.24456
27.4344
3.35405
1.93601
1.81011
1.77142
1.6919
1.52949
1.30979
1.03516
0.725555
0.412942
0.547379
68.3386
41.0763
28.9875
21.2682
15.7815
11.6481
8.52435
6.17595
4.33479
2.84646
1.68608
1.245
27.4372
3.35405
1.93592
1.81002
1.77134
1.69184
1.52945
1.30977
1.03516
0.725551
0.412944
0.547398
68.3269
41.0678
28.9808
21.2629
15.7773
11.6449
8.52195
6.17417
4.33355
2.84566
1.68562
1.2447
27.4346
3.35411
1.93602
1.81009
1.7714
1.69184
1.52944
1.30972
1.03511
0.725508
0.41291
0.547327
)
;
    }
    front
    {
        type            empty;
    }
    back
    {
        type            empty;
    }
}


// ************************************************************************* //
