/*--------------------------------*- C++ -*----------------------------------*\
| =========                 |                                                 |
| \\      /  F ield         | OpenFOAM: The Open Source CFD Toolbox           |
|  \\    /   O peration     | Version:  4.0                                   |
|   \\  /    A nd           | Web:      www.OpenFOAM.org                      |
|    \\/     M anipulation  |                                                 |
\*---------------------------------------------------------------------------*/
FoamFile
{
    version     2.0;
    format      ascii;
    class       volScalarField;
    location    "500";
    object      k;
}
// * * * * * * * * * * * * * * * * * * * * * * * * * * * * * * * * * * * * * //

dimensions      [0 2 -2 0 0 0 0];

internalField   nonuniform List<scalar> 
3072
(
0.0336389
0.0456571
0.0503899
0.0505408
0.0481841
0.0425131
0.0426925
0.0574897
0.159362
0.245476
0.280562
0.300448
0.0570233
0.105584
0.108191
0.104612
0.0896141
0.0923946
0.166151
0.193339
0.254436
0.333103
0.396271
0.464803
0.0700863
0.125788
0.163848
0.192909
0.205676
0.196448
0.226512
0.300705
0.390638
0.477565
0.554038
0.621612
0.0957932
0.184993
0.216235
0.21958
0.219037
0.241983
0.324971
0.420654
0.510508
0.589078
0.657118
0.71532
0.111378
0.217095
0.237878
0.236981
0.258061
0.332542
0.429351
0.521842
0.603229
0.672007
0.730894
0.781483
0.122324
0.237883
0.263143
0.277609
0.337178
0.428543
0.52229
0.606874
0.678357
0.737962
0.788946
0.83301
0.131222
0.258098
0.297544
0.348177
0.432936
0.528153
0.616462
0.69225
0.754738
0.805937
0.849126
0.886299
0.140538
0.288059
0.35936
0.453436
0.559868
0.657619
0.73902
0.804025
0.854841
0.894713
0.927167
0.954582
0.154837
0.336221
0.472021
0.615899
0.744574
0.843763
0.914796
0.964006
0.997248
1.0197
1.03567
1.04806
0.175695
0.416675
0.664207
0.865554
1.00992
1.10165
1.15376
1.17917
1.18701
1.18461
1.17726
1.16826
0.210463
0.567928
0.97093
1.21795
1.35024
1.41243
1.4318
1.42528
1.4014
1.36946
1.33495
1.30113
0.598164
0.972332
1.3929
1.58765
1.66222
1.67622
1.66476
1.62806
1.57964
1.52487
1.46886
1.41461
0.314188
0.320836
0.323366
0.322473
0.319184
0.308167
0.292981
0.268911
0.239526
0.198748
0.151051
0.117033
0.525929
0.576017
0.612433
0.629383
0.629145
0.620987
0.606839
0.582444
0.537538
0.443705
0.326267
0.276547
0.675297
0.714365
0.738185
0.748607
0.750551
0.74895
0.743506
0.732619
0.706574
0.642561
0.488006
0.404599
0.761521
0.796459
0.821038
0.836907
0.84706
0.854847
0.8626
0.869514
0.866961
0.833756
0.69723
0.503772
0.822607
0.854923
0.87941
0.897832
0.913093
0.928691
0.947765
0.970734
0.986851
0.979108
0.875638
0.591232
0.869886
0.900121
0.924718
0.94548
0.965349
0.988192
1.01785
1.05574
1.0964
1.11593
1.05863
0.675561
0.917996
0.944913
0.968136
0.989517
1.01206
1.04002
1.07811
1.12925
1.18956
1.23613
1.22018
0.756929
0.978118
0.998719
1.01759
1.03657
1.05862
1.08832
1.13161
1.19362
1.27285
1.34563
1.36095
0.85025
1.0585
1.06819
1.07856
1.09137
1.10918
1.13657
1.18071
1.25006
1.34716
1.44771
1.48224
0.956278
1.1599
1.15378
1.15169
1.15519
1.16551
1.18674
1.22703
1.29888
1.41124
1.54457
1.61433
1.06923
1.27082
1.24616
1.22863
1.22072
1.22513
1.23933
1.27265
1.33976
1.46005
1.6295
1.76604
1.20308
1.36577
1.32572
1.29589
1.27817
1.27831
1.2889
1.31615
1.37424
1.48582
1.67652
1.91688
1.40067
0.0336522
0.0456723
0.0504015
0.0505508
0.0481923
0.0425191
0.0426973
0.057492
0.159363
0.245487
0.280578
0.300466
0.0570293
0.105595
0.108198
0.104618
0.0896197
0.0923985
0.166152
0.193343
0.254439
0.333114
0.396288
0.464827
0.0700892
0.125791
0.163844
0.192898
0.205671
0.196451
0.22651
0.300702
0.390643
0.477579
0.554059
0.62164
0.0957927
0.184988
0.216229
0.219574
0.219032
0.241977
0.32496
0.420654
0.510519
0.589098
0.657144
0.715351
0.111377
0.217091
0.237873
0.236974
0.25805
0.332525
0.429346
0.521847
0.603244
0.672028
0.730919
0.781514
0.122322
0.23788
0.263137
0.277596
0.337164
0.428536
0.522294
0.606886
0.678376
0.737985
0.788973
0.833041
0.131226
0.258105
0.297548
0.34818
0.43294
0.528164
0.61648
0.692273
0.754765
0.805967
0.849157
0.886334
0.140548
0.288084
0.359388
0.453467
0.559903
0.657657
0.73906
0.804066
0.854883
0.894754
0.927209
0.954624
0.154854
0.336262
0.472071
0.615956
0.744636
0.843827
0.91486
0.964069
0.997308
1.01976
1.03573
1.04812
0.175717
0.416722
0.664263
0.865621
1.00999
1.10173
1.15384
1.17925
1.18709
1.18469
1.17733
1.16833
0.210484
0.567965
0.970975
1.218
1.35031
1.41251
1.43188
1.42536
1.40148
1.36954
1.33503
1.3012
0.598176
0.972348
1.39292
1.58768
1.66226
1.67627
1.66482
1.62813
1.57972
1.52494
1.46894
1.41468
0.314208
0.320858
0.323388
0.322495
0.319206
0.308188
0.293001
0.268929
0.239541
0.198761
0.151063
0.117045
0.525958
0.576051
0.612472
0.629424
0.629187
0.621029
0.60688
0.582483
0.537576
0.443735
0.32629
0.276569
0.67533
0.714402
0.738226
0.74865
0.750595
0.748995
0.743551
0.732663
0.706618
0.642603
0.488037
0.404622
0.761556
0.796498
0.82108
0.836951
0.847105
0.854894
0.862647
0.869563
0.867009
0.833803
0.697271
0.5038
0.822642
0.854961
0.879451
0.897876
0.913139
0.928739
0.947815
0.970786
0.986904
0.979161
0.875687
0.591263
0.869921
0.900159
0.924758
0.945523
0.965395
0.988241
1.0179
1.05579
1.09646
1.11599
1.05868
0.675596
0.918033
0.944953
0.968178
0.989562
1.01211
1.04006
1.07817
1.12931
1.18963
1.23619
1.22024
0.756966
0.978162
0.998763
1.01763
1.03662
1.05867
1.08838
1.13166
1.19368
1.27292
1.3457
1.36102
0.850293
1.05855
1.06824
1.07861
1.09142
1.10923
1.13662
1.18077
1.25013
1.34723
1.44779
1.48232
0.956325
1.15996
1.15384
1.15175
1.15525
1.16557
1.18679
1.22709
1.29895
1.41131
1.54465
1.61441
1.06928
1.27089
1.24623
1.22869
1.22079
1.22519
1.23939
1.27271
1.33983
1.46013
1.62959
1.76612
1.20314
1.36585
1.32579
1.29596
1.27824
1.27838
1.28897
1.31622
1.37431
1.4859
1.67661
1.91697
1.40074
0.0336547
0.0456692
0.0504027
0.0505523
0.0481914
0.0425183
0.0426996
0.0575178
0.159452
0.245536
0.28061
0.300498
0.0570473
0.105619
0.108223
0.10464
0.0896218
0.0924245
0.166215
0.193394
0.254534
0.333203
0.396376
0.464914
0.0701181
0.125848
0.16393
0.192991
0.205706
0.196468
0.226603
0.300832
0.390782
0.477714
0.554188
0.621755
0.0958303
0.185066
0.216295
0.219622
0.21908
0.242074
0.325139
0.420816
0.510666
0.589231
0.657274
0.715473
0.111413
0.21716
0.237939
0.237045
0.258163
0.33273
0.429528
0.522012
0.603395
0.672172
0.731061
0.781647
0.122355
0.237951
0.263226
0.277729
0.337345
0.428716
0.522456
0.607037
0.678522
0.738132
0.789121
0.833184
0.131242
0.258147
0.297622
0.348289
0.43307
0.528293
0.616605
0.6924
0.754898
0.806108
0.849304
0.886479
0.140545
0.288068
0.359395
0.453495
0.559945
0.657712
0.73913
0.804154
0.85499
0.894878
0.927344
0.954763
0.154827
0.336191
0.47201
0.615902
0.744593
0.843805
0.914865
0.964105
0.997376
1.01986
1.03584
1.04824
0.175672
0.416625
0.66417
0.86552
1.00989
1.10165
1.15379
1.17924
1.18711
1.18474
1.17741
1.16842
0.210441
0.567893
0.970897
1.21791
1.3502
1.41241
1.43181
1.42532
1.40147
1.36957
1.33507
1.30127
0.598199
0.972367
1.39292
1.58765
1.66221
1.67621
1.66477
1.62809
1.5797
1.52495
1.46896
1.41472
0.314236
0.320882
0.32341
0.322514
0.319221
0.308199
0.293009
0.268935
0.239545
0.198762
0.151061
0.117043
0.526046
0.576133
0.612544
0.629485
0.629241
0.62107
0.606914
0.58251
0.537594
0.443746
0.326291
0.276567
0.67544
0.714504
0.738318
0.748733
0.750668
0.749056
0.743604
0.732707
0.706654
0.642629
0.488049
0.404624
0.761673
0.796611
0.821186
0.837049
0.847195
0.854975
0.862719
0.869623
0.867061
0.833843
0.697296
0.503807
0.82277
0.855085
0.87957
0.897988
0.913244
0.928837
0.947903
0.970864
0.986972
0.979215
0.875721
0.591275
0.870058
0.900292
0.924887
0.945647
0.965512
0.988351
1.01801
1.05589
1.09654
1.11605
1.05873
0.675613
0.918175
0.945092
0.968313
0.989692
1.01224
1.04018
1.07828
1.12941
1.18972
1.23627
1.2203
0.756988
0.978301
0.998901
1.01777
1.03675
1.0588
1.0885
1.13178
1.19379
1.27302
1.34579
1.36108
0.85032
1.05868
1.06837
1.07874
1.09154
1.10935
1.13674
1.18089
1.25024
1.34734
1.44788
1.48239
0.956357
1.16007
1.15395
1.15186
1.15536
1.16568
1.18691
1.2272
1.29906
1.41142
1.54475
1.61449
1.06932
1.27097
1.24631
1.22878
1.22088
1.22528
1.23948
1.27281
1.33993
1.46024
1.62969
1.7662
1.20319
1.36589
1.32584
1.29602
1.27831
1.27845
1.28905
1.31629
1.3744
1.486
1.67671
1.91706
1.40079
0.0336552
0.0456736
0.0504057
0.0505553
0.048196
0.0425226
0.0427021
0.0575077
0.159412
0.24552
0.280603
0.300491
0.0570409
0.105612
0.108217
0.104636
0.0896302
0.0924197
0.166191
0.193374
0.254492
0.333167
0.396343
0.464884
0.0701063
0.125825
0.163893
0.192952
0.205702
0.196473
0.226558
0.30077
0.390718
0.477656
0.554136
0.621712
0.0958132
0.185031
0.216271
0.219609
0.219067
0.242028
0.325045
0.420738
0.510599
0.589175
0.657222
0.715427
0.111396
0.217131
0.237914
0.237017
0.258107
0.332617
0.429434
0.521934
0.603327
0.672111
0.731003
0.781596
0.122339
0.237919
0.263184
0.277659
0.337244
0.42862
0.522376
0.606967
0.678457
0.738069
0.789059
0.833126
0.131237
0.25813
0.297586
0.348231
0.433002
0.52823
0.616548
0.692344
0.754841
0.806048
0.849243
0.88642
0.140551
0.288087
0.3594
0.453491
0.559935
0.657697
0.739108
0.804123
0.854949
0.894829
0.927289
0.954707
0.154849
0.336247
0.472065
0.615957
0.744645
0.843845
0.914889
0.96411
0.997361
1.01983
1.0358
1.0482
0.175707
0.416704
0.664255
0.865617
1.00999
1.10174
1.15385
1.17928
1.18713
1.18474
1.17739
1.16839
0.210477
0.567967
0.970986
1.21802
1.35031
1.41252
1.43189
1.42538
1.40151
1.36958
1.33508
1.30126
0.598214
0.972408
1.39298
1.58773
1.6623
1.67631
1.66485
1.62816
1.57975
1.52498
1.46898
1.41473
0.314233
0.320881
0.32341
0.322516
0.319225
0.308204
0.293015
0.26894
0.23955
0.198767
0.151067
0.117049
0.526018
0.57611
0.612527
0.629474
0.629234
0.62107
0.606917
0.582515
0.537603
0.443754
0.326301
0.276577
0.675402
0.714471
0.738291
0.748712
0.750653
0.749047
0.743598
0.732706
0.706655
0.642634
0.488056
0.404632
0.761632
0.796573
0.821153
0.837021
0.847172
0.854956
0.862705
0.869615
0.867056
0.833843
0.697301
0.503815
0.822723
0.855041
0.87953
0.897953
0.913213
0.92881
0.947882
0.970848
0.986961
0.979211
0.875724
0.591281
0.870005
0.900243
0.924842
0.945606
0.965475
0.988319
1.01798
1.05586
1.09653
1.11604
1.05873
0.675618
0.918119
0.945039
0.968264
0.989647
1.0122
1.04015
1.07825
1.12939
1.1897
1.23626
1.22029
0.756992
0.978246
0.998849
1.01772
1.0367
1.05876
1.08846
1.13175
1.19376
1.273
1.34577
1.36108
0.850322
1.05863
1.06832
1.07869
1.0915
1.10931
1.13671
1.18086
1.25021
1.34732
1.44787
1.48238
0.956358
1.16004
1.15392
1.15183
1.15533
1.16565
1.18688
1.22718
1.29903
1.4114
1.54474
1.61448
1.06932
1.27095
1.2463
1.22876
1.22086
1.22527
1.23947
1.27279
1.33991
1.46022
1.62967
1.76619
1.20318
1.3659
1.32585
1.29602
1.27831
1.27845
1.28904
1.31629
1.37439
1.48598
1.67669
1.91704
1.40078
1.73055
1.72608
1.74178
1.75806
1.7678
1.76069
1.74009
1.70127
1.65184
1.59378
1.53268
1.47145
1.75371
1.70688
1.686
1.67814
1.67635
1.67016
1.65714
1.63581
1.60328
1.55768
1.50759
1.45458
1.66662
1.62584
1.59056
1.56296
1.54211
1.52412
1.50736
1.48983
1.46962
1.44467
1.41457
1.38032
1.53764
1.50594
1.46667
1.42742
1.39469
1.36762
1.34477
1.32644
1.31227
1.30141
1.29282
1.28761
1.41545
1.37036
1.33744
1.31855
1.31865
1.3285
1.35283
1.40225
1.49179
1.65949
1.93833
1.85715
1.40629
1.37081
1.34758
1.33802
1.34173
1.35387
1.3777
1.41839
1.4841
1.59163
1.814
1.81422
1.35354
1.34096
1.33689
1.33941
1.34807
1.36333
1.38477
1.41526
1.46151
1.52184
1.66168
1.69433
1.29323
1.30655
1.31442
1.32314
1.33281
1.34571
1.36357
1.38681
1.42104
1.45575
1.5336
1.5582
1.73051
1.72607
1.74178
1.75807
1.76783
1.76072
1.74014
1.70132
1.6519
1.59385
1.53275
1.47153
1.75368
1.70688
1.686
1.67816
1.67638
1.6702
1.65718
1.63586
1.60334
1.55774
1.50766
1.45465
1.66656
1.62585
1.59058
1.56299
1.54214
1.52416
1.5074
1.48988
1.46967
1.44472
1.41463
1.38038
1.53758
1.50593
1.46671
1.42746
1.39474
1.36766
1.34481
1.32649
1.31232
1.30147
1.29288
1.28767
1.41552
1.37043
1.33751
1.31862
1.31873
1.32857
1.35291
1.40232
1.49187
1.65958
1.93842
1.85724
1.40636
1.37089
1.34765
1.3381
1.34181
1.35395
1.37778
1.41848
1.48418
1.59172
1.81409
1.81431
1.35361
1.34103
1.33696
1.33948
1.34814
1.36341
1.38485
1.41535
1.4616
1.52192
1.66177
1.69442
1.2933
1.30662
1.3145
1.32321
1.33289
1.34579
1.36365
1.38689
1.42112
1.45584
1.53368
1.55828
1.7306
1.72615
1.74185
1.75811
1.76783
1.76072
1.74011
1.7013
1.65188
1.59384
1.53276
1.47154
1.75376
1.70696
1.68608
1.67822
1.67642
1.67022
1.6572
1.63587
1.60333
1.55773
1.50766
1.45465
1.66665
1.62593
1.59066
1.56305
1.5422
1.52421
1.50744
1.4899
1.46968
1.44473
1.41462
1.38038
1.53765
1.506
1.46677
1.42752
1.39478
1.3677
1.34484
1.32651
1.31233
1.30147
1.29288
1.28767
1.41554
1.37046
1.33755
1.31866
1.31878
1.32862
1.35297
1.4024
1.49196
1.65968
1.93851
1.85731
1.40636
1.3709
1.34767
1.33813
1.34184
1.35398
1.37783
1.41854
1.48426
1.59181
1.81418
1.81439
1.35361
1.34104
1.33698
1.3395
1.34817
1.36345
1.3849
1.41541
1.46167
1.52201
1.66188
1.69452
1.29331
1.30663
1.31452
1.32324
1.33293
1.34584
1.36371
1.38697
1.42121
1.45594
1.53379
1.55839
1.73064
1.72618
1.74189
1.75817
1.76791
1.7608
1.7402
1.70138
1.65195
1.59389
1.5328
1.47157
1.75384
1.70702
1.68614
1.67828
1.67649
1.6703
1.65728
1.63595
1.60341
1.5578
1.50772
1.45471
1.66674
1.62601
1.59073
1.56313
1.54228
1.52429
1.50752
1.48999
1.46977
1.44481
1.4147
1.38045
1.53776
1.5061
1.46686
1.42761
1.39487
1.36779
1.34493
1.3266
1.31241
1.30155
1.29295
1.28774
1.41557
1.37049
1.33757
1.31868
1.31879
1.32863
1.35297
1.40239
1.49194
1.65965
1.93848
1.85729
1.40641
1.37095
1.34771
1.33816
1.34187
1.354
1.37783
1.41853
1.48424
1.59178
1.81414
1.81435
1.35367
1.34109
1.33702
1.33954
1.34819
1.36346
1.3849
1.41539
1.46164
1.52197
1.66182
1.69446
1.29336
1.30667
1.31454
1.32325
1.33293
1.34582
1.36368
1.38693
1.42116
1.45588
1.53373
1.55834
1.37483
1.33319
1.29162
1.25438
1.22492
1.20215
1.18564
1.17594
1.17345
1.17847
1.19267
1.21807
1.24466
1.20502
1.16806
1.13588
1.10987
1.08944
1.07512
1.06774
1.06767
1.07444
1.08958
1.11597
1.14269
1.11035
1.08003
1.05226
1.02717
1.00475
0.986036
0.971943
0.962664
0.957895
0.959486
0.975627
1.05953
1.03588
1.01207
0.987244
0.960609
0.932205
0.903078
0.87401
0.844736
0.814477
0.787094
0.783065
1.24659
1.26025
1.26065
1.26829
1.28118
1.30078
1.32604
1.35428
1.38426
1.41089
1.43438
1.41972
1.14758
1.16251
1.15697
1.16592
1.18594
1.21454
1.24778
1.27993
1.30467
1.31963
1.32225
1.2919
1.01861
1.04924
1.04494
1.05673
1.083
1.11792
1.15608
1.18788
1.20882
1.21883
1.21307
1.18213
0.840539
0.924148
0.931956
0.94897
0.980032
1.01862
1.05855
1.08953
1.10922
1.118
1.11205
1.088
1.37483
1.33322
1.29167
1.25443
1.22498
1.2022
1.1857
1.17599
1.17351
1.17853
1.19273
1.21814
1.24469
1.20507
1.16812
1.13595
1.10993
1.0895
1.07518
1.0678
1.06772
1.0745
1.08964
1.11604
1.14274
1.11041
1.0801
1.05232
1.02724
1.00481
0.986093
0.971997
0.962717
0.957949
0.959542
0.975689
1.05958
1.03594
1.01214
0.987314
0.960677
0.932268
0.903136
0.874062
0.844784
0.814523
0.787139
0.783113
1.24666
1.26033
1.26072
1.26837
1.28126
1.30086
1.32612
1.35435
1.38433
1.41096
1.43445
1.41979
1.14765
1.16258
1.15704
1.166
1.18601
1.21461
1.24785
1.27999
1.30473
1.31969
1.32231
1.29195
1.01868
1.04931
1.04501
1.0568
1.08306
1.11798
1.15613
1.18794
1.20888
1.21888
1.21311
1.18217
0.840597
0.924209
0.932016
0.949028
0.980088
1.01867
1.05859
1.08958
1.10926
1.11804
1.11209
1.08803
1.37489
1.33327
1.29171
1.25447
1.22501
1.20223
1.18571
1.176
1.17351
1.17854
1.19274
1.21816
1.24474
1.20511
1.16815
1.13597
1.10995
1.08951
1.07519
1.06781
1.06773
1.07452
1.08967
1.11608
1.14277
1.11044
1.08012
1.05234
1.02725
1.00482
0.986104
0.97201
0.962735
0.957979
0.95958
0.975749
1.05961
1.03596
1.01216
0.987328
0.960689
0.93228
0.90315
0.874081
0.844811
0.814561
0.787187
0.783176
1.24669
1.26037
1.26078
1.26844
1.28134
1.30095
1.32622
1.35445
1.38445
1.41108
1.43457
1.4199
1.14772
1.16266
1.15713
1.1661
1.18613
1.21473
1.24798
1.28012
1.30486
1.31982
1.32244
1.29207
1.01877
1.04942
1.04513
1.05693
1.0832
1.11812
1.15628
1.18808
1.20902
1.21902
1.21324
1.18229
0.840697
0.924333
0.932156
0.949175
0.980241
1.01882
1.05875
1.08973
1.10941
1.11818
1.11221
1.08815
1.375
1.33337
1.29181
1.25456
1.22509
1.20231
1.18579
1.17608
1.17358
1.17859
1.19278
1.21818
1.24484
1.20521
1.16825
1.13606
1.11003
1.08959
1.07526
1.06786
1.06777
1.07454
1.08967
1.11606
1.14288
1.11053
1.08021
1.05242
1.02732
1.00488
0.986148
0.97204
0.962747
0.957969
0.959559
0.975704
1.05971
1.03605
1.01224
0.987392
0.960742
0.932321
0.903176
0.87409
0.844801
0.814532
0.787146
0.783121
1.24669
1.26036
1.26076
1.2684
1.28129
1.30089
1.32616
1.35439
1.38438
1.41101
1.43451
1.41986
1.14768
1.16261
1.15707
1.16603
1.18605
1.21465
1.24789
1.28004
1.30478
1.31974
1.32238
1.29202
1.0187
1.04934
1.04504
1.05684
1.0831
1.11803
1.15618
1.18799
1.20893
1.21894
1.21318
1.18223
0.840617
0.924236
0.932052
0.94907
0.980134
1.01872
1.05865
1.08963
1.10932
1.1181
1.11215
1.08809
0.986386
0.971114
0.953129
0.930212
0.900587
0.863742
0.819886
0.768682
0.70702
0.625015
0.491415
0.294217
0.91703
0.909179
0.896294
0.874897
0.842167
0.796544
0.736949
0.661755
0.565992
0.437427
0.240967
0.0741622
0.847872
0.846255
0.8379
0.818193
0.783434
0.730976
0.658781
0.56533
0.448322
0.307256
0.150612
0.0525692
0.777433
0.780752
0.776538
0.75904
0.724091
0.668324
0.589505
0.487884
0.366864
0.239537
0.130022
0.0513573
0.705804
0.712821
0.71219
0.697494
0.664387
0.60926
0.530232
0.42993
0.316776
0.209029
0.126112
0.0516884
0.633564
0.643272
0.645524
0.63407
0.604533
0.553466
0.479334
0.386643
0.286197
0.194984
0.125175
0.0511527
0.561468
0.572951
0.577474
0.5693
0.544462
0.499925
0.433896
0.351909
0.264855
0.186409
0.123545
0.0487713
0.489962
0.502412
0.508587
0.503326
0.483759
0.447133
0.390792
0.32043
0.245826
0.177418
0.118604
0.0448266
0.41867
0.431288
0.438529
0.435751
0.421046
0.392536
0.346937
0.287904
0.224407
0.164368
0.108354
0.0390344
0.344955
0.35697
0.364678
0.363794
0.353136
0.331992
0.29777
0.249855
0.196299
0.143881
0.0907132
0.0313599
0.258892
0.269232
0.276558
0.27696
0.269954
0.254693
0.231886
0.198169
0.153961
0.11002
0.0619449
0.0219177
0.116216
0.122216
0.127353
0.129482
0.128109
0.123076
0.114464
0.101755
0.084072
0.0613387
0.0370361
0.014243
0.540668
0.783859
0.818168
0.844397
0.879324
0.919794
0.959909
0.990677
1.01052
1.02047
1.01856
1.00389
0.394048
0.652123
0.70849
0.744312
0.782257
0.823377
0.863049
0.893938
0.914773
0.927028
0.930228
0.92487
0.319369
0.544454
0.608665
0.650338
0.690114
0.730897
0.769617
0.800527
0.822809
0.837511
0.845469
0.847792
0.265454
0.455495
0.519867
0.563636
0.603876
0.64348
0.680682
0.711263
0.734686
0.751578
0.763462
0.77151
0.222155
0.380665
0.441184
0.484621
0.524064
0.561787
0.596908
0.62663
0.650489
0.669078
0.683764
0.695742
0.185143
0.31591
0.371309
0.41305
0.450783
0.486051
0.518628
0.546938
0.570545
0.58995
0.606375
0.620866
0.153332
0.257809
0.308728
0.348235
0.383741
0.416125
0.445804
0.472208
0.49497
0.514407
0.531534
0.547259
0.126068
0.204401
0.251946
0.28922
0.322209
0.351414
0.377932
0.402038
0.423482
0.442316
0.459294
0.475209
0.101428
0.155489
0.199646
0.234775
0.264884
0.290643
0.313775
0.335267
0.355019
0.37276
0.38892
0.404213
0.0780207
0.111271
0.150595
0.182852
0.209094
0.230868
0.250296
0.268896
0.286672
0.302931
0.317663
0.331603
0.0560026
0.0723351
0.102468
0.128272
0.148071
0.164432
0.179225
0.194264
0.209575
0.223802
0.236158
0.247722
0.0246388
0.0300229
0.0441072
0.0567649
0.0657105
0.0725049
0.0784653
0.0847288
0.0915613
0.0981304
0.104275
0.110219
0.986441
0.971177
0.9532
0.930284
0.900657
0.863807
0.819945
0.768733
0.707065
0.625053
0.491444
0.294238
0.917085
0.909241
0.896363
0.87497
0.842239
0.796612
0.73701
0.661808
0.566037
0.437463
0.240994
0.0741743
0.847924
0.846316
0.837968
0.818265
0.783506
0.731045
0.658844
0.565386
0.44837
0.307295
0.15064
0.0525806
0.777484
0.780809
0.776603
0.75911
0.724162
0.668394
0.58957
0.487942
0.366914
0.239577
0.130049
0.0513687
0.705852
0.712875
0.712252
0.697561
0.664457
0.609329
0.530296
0.429988
0.316825
0.209067
0.126138
0.0516997
0.633611
0.643324
0.645582
0.634133
0.604599
0.553532
0.479397
0.386699
0.286244
0.19502
0.125201
0.0511635
0.561514
0.573
0.577527
0.569359
0.544524
0.499987
0.433955
0.351962
0.2649
0.186444
0.12357
0.0487813
0.490005
0.502456
0.508636
0.50338
0.483815
0.44719
0.390847
0.320479
0.245867
0.17745
0.118627
0.0448356
0.418709
0.431328
0.438573
0.435798
0.421096
0.392587
0.346987
0.287949
0.224445
0.164397
0.108374
0.0390419
0.344989
0.357005
0.364716
0.363835
0.353179
0.332035
0.297813
0.249894
0.196332
0.143906
0.0907301
0.0313657
0.258917
0.269259
0.276587
0.276991
0.269987
0.254727
0.231919
0.198199
0.153987
0.11004
0.0619566
0.0219215
0.116228
0.122229
0.127366
0.129496
0.128124
0.123092
0.114479
0.101769
0.0840849
0.0613483
0.0370419
0.014245
0.540706
0.783911
0.818222
0.84445
0.879374
0.919842
0.959954
0.990719
1.01056
1.02051
1.01859
1.00392
0.394075
0.652168
0.708538
0.74436
0.782303
0.823421
0.863091
0.893977
0.91481
0.927062
0.930259
0.924897
0.319391
0.544492
0.608708
0.650382
0.690158
0.730939
0.769656
0.800564
0.822843
0.837544
0.845498
0.847818
0.265472
0.455529
0.519906
0.563677
0.603917
0.643519
0.680719
0.711298
0.73472
0.751609
0.763491
0.771536
0.22217
0.380695
0.44122
0.484659
0.524103
0.561825
0.596945
0.626665
0.650522
0.669109
0.683793
0.695769
0.185156
0.315936
0.371341
0.413086
0.45082
0.486087
0.518664
0.546972
0.570578
0.58998
0.606403
0.620893
0.153343
0.257831
0.308757
0.348268
0.383776
0.41616
0.445838
0.472241
0.495002
0.514437
0.531563
0.547286
0.126077
0.20442
0.251972
0.289251
0.322241
0.351447
0.377964
0.402069
0.423512
0.442346
0.459321
0.475235
0.101435
0.155504
0.199669
0.234802
0.264913
0.290672
0.313804
0.335295
0.355047
0.372787
0.388946
0.404238
0.078026
0.111282
0.150614
0.182875
0.209119
0.230893
0.250321
0.26892
0.286697
0.302955
0.317687
0.331626
0.0560062
0.0723425
0.102482
0.128289
0.14809
0.164451
0.179243
0.194283
0.209594
0.223821
0.236176
0.24774
0.02464
0.0300254
0.0441129
0.0567724
0.0657187
0.0725129
0.078473
0.0847366
0.0915693
0.0981383
0.104283
0.110226
0.986466
0.971197
0.953216
0.930298
0.900671
0.863821
0.819962
0.768756
0.707094
0.625087
0.491477
0.294259
0.917108
0.90926
0.89638
0.874984
0.842254
0.796628
0.737029
0.661829
0.566061
0.437484
0.241001
0.0741744
0.847947
0.846335
0.837985
0.818281
0.783522
0.731063
0.658862
0.565404
0.448386
0.307303
0.150638
0.0525789
0.777507
0.78083
0.776621
0.759128
0.72418
0.668411
0.589586
0.487956
0.366923
0.239578
0.130046
0.0513671
0.705876
0.712897
0.712272
0.69758
0.664475
0.609346
0.530312
0.429999
0.316831
0.209067
0.126135
0.0516982
0.633635
0.643346
0.645603
0.634154
0.604618
0.553549
0.479411
0.386709
0.286249
0.19502
0.125199
0.0511625
0.561538
0.573023
0.577549
0.56938
0.544543
0.500004
0.433969
0.351971
0.264904
0.186444
0.123568
0.0487805
0.490029
0.502479
0.508658
0.5034
0.483834
0.447207
0.39086
0.320487
0.245872
0.177452
0.118627
0.0448352
0.418733
0.43135
0.438595
0.435818
0.421115
0.392603
0.347
0.287957
0.224449
0.164399
0.108374
0.0390418
0.34501
0.357025
0.364735
0.363853
0.353196
0.33205
0.297825
0.249901
0.196336
0.143909
0.0907307
0.0313656
0.258934
0.269276
0.276602
0.277006
0.270001
0.254739
0.231929
0.198207
0.153991
0.110042
0.0619572
0.0219216
0.116235
0.122236
0.127373
0.129503
0.12813
0.123098
0.114484
0.101773
0.0840876
0.06135
0.0370428
0.0142453
0.540786
0.784044
0.818368
0.844604
0.879533
0.920001
0.960108
0.990866
1.0107
1.02064
1.01871
1.00402
0.394147
0.652297
0.708683
0.744514
0.782461
0.823579
0.863242
0.89412
0.914944
0.927187
0.930371
0.924993
0.319456
0.544613
0.608847
0.65053
0.69031
0.731091
0.769802
0.8007
0.822969
0.837659
0.8456
0.847905
0.265531
0.455639
0.520035
0.563816
0.60406
0.643662
0.680857
0.711426
0.734836
0.751713
0.763583
0.771614
0.222222
0.380793
0.441336
0.484786
0.524235
0.561957
0.597072
0.626783
0.650629
0.669204
0.683874
0.695837
0.1852
0.316022
0.371444
0.4132
0.450939
0.486207
0.51878
0.547079
0.570674
0.590066
0.606476
0.620952
0.153381
0.257903
0.308847
0.348368
0.383881
0.416266
0.445941
0.472337
0.495088
0.514512
0.531626
0.547337
0.126109
0.204479
0.252048
0.289336
0.322332
0.351539
0.378054
0.402152
0.423587
0.442411
0.459377
0.475279
0.101461
0.15555
0.19973
0.234873
0.26499
0.290751
0.313881
0.335367
0.355111
0.372843
0.388993
0.404276
0.0780457
0.111315
0.150661
0.182931
0.20918
0.230958
0.250384
0.268979
0.28675
0.303001
0.317725
0.331656
0.05602
0.0723638
0.102516
0.128329
0.148135
0.164499
0.179291
0.194327
0.209634
0.223855
0.236205
0.247763
0.0246457
0.0300331
0.044128
0.0567905
0.0657392
0.0725348
0.0784949
0.0847571
0.0915876
0.0981546
0.104297
0.110238
0.986555
0.971272
0.953278
0.930348
0.900709
0.863847
0.819973
0.768752
0.707073
0.625056
0.491446
0.294241
0.917189
0.909325
0.89643
0.875022
0.842279
0.796642
0.73703
0.66182
0.566043
0.437467
0.241
0.0741753
0.848019
0.846391
0.838024
0.818307
0.783537
0.731067
0.658859
0.565394
0.448375
0.3073
0.150645
0.0525808
0.77757
0.780877
0.776651
0.759144
0.724185
0.668409
0.589579
0.487948
0.366918
0.23958
0.130051
0.0513685
0.705931
0.712936
0.712294
0.697589
0.664474
0.609339
0.530302
0.429992
0.316828
0.209069
0.126138
0.0516993
0.633682
0.643378
0.64562
0.634157
0.604613
0.553539
0.4794
0.386701
0.286245
0.195021
0.1252
0.0511625
0.561577
0.573049
0.577561
0.56938
0.544535
0.499992
0.433957
0.351962
0.264899
0.186442
0.123568
0.0487802
0.490062
0.502501
0.508667
0.503398
0.483825
0.447194
0.390847
0.320478
0.245866
0.177448
0.118624
0.0448342
0.41876
0.431367
0.4386
0.435815
0.421105
0.39259
0.346986
0.287947
0.224442
0.164394
0.108371
0.0390405
0.345033
0.357039
0.364739
0.363849
0.353187
0.332038
0.297812
0.249891
0.196328
0.143903
0.0907271
0.0313644
0.258951
0.269286
0.276605
0.277002
0.269993
0.254729
0.231919
0.198198
0.153984
0.110036
0.0619541
0.0219204
0.116244
0.122242
0.127375
0.129501
0.128127
0.123093
0.114479
0.101768
0.0840828
0.0613462
0.0370402
0.0142441
0.540724
0.783942
0.818259
0.844493
0.879422
0.919892
0.960006
0.990772
1.01061
1.02056
1.01865
1.00397
0.394093
0.652198
0.708574
0.744401
0.782349
0.82347
0.863141
0.894027
0.914859
0.927112
0.930312
0.924943
0.319407
0.54452
0.608741
0.65042
0.6902
0.730984
0.769702
0.800609
0.822888
0.837588
0.845545
0.847857
0.265487
0.455554
0.519935
0.56371
0.603955
0.64356
0.680761
0.711339
0.734759
0.751649
0.763532
0.771569
0.222184
0.380716
0.441244
0.484687
0.524135
0.56186
0.596981
0.6267
0.650557
0.669145
0.683828
0.695795
0.185167
0.315954
0.371361
0.413109
0.450846
0.486116
0.518695
0.547002
0.570608
0.590012
0.606435
0.620909
0.153352
0.257845
0.308773
0.348286
0.383797
0.416183
0.445863
0.472267
0.495028
0.514463
0.531589
0.547295
0.126085
0.20443
0.251984
0.289263
0.322256
0.351465
0.377984
0.40209
0.423533
0.442367
0.459341
0.475241
0.101442
0.155512
0.199677
0.234811
0.264924
0.290686
0.31382
0.335312
0.355063
0.372804
0.388961
0.404241
0.0780313
0.111287
0.150619
0.182881
0.209126
0.230903
0.250333
0.268933
0.28671
0.302968
0.317697
0.331626
0.0560102
0.0723462
0.102485
0.128292
0.148095
0.164458
0.179253
0.194292
0.209603
0.22383
0.236184
0.247738
0.0246418
0.0300271
0.0441147
0.056774
0.065721
0.0725166
0.0784778
0.0847416
0.091574
0.0981431
0.104287
0.110227
)
;

boundaryField
{
    rotor
    {
        type            kqRWallFunction;
        value           nonuniform List<scalar> 
192
(
0.0336389
0.0456571
0.0503899
0.0505408
0.0481841
0.0425131
0.0426925
0.0574897
0.159362
0.245476
0.280562
0.300448
0.314188
0.320836
0.323366
0.322473
0.319184
0.308167
0.292981
0.268911
0.239526
0.198748
0.151051
0.117033
0.0336522
0.0456723
0.0504015
0.0505508
0.0481923
0.0425191
0.0426973
0.057492
0.159363
0.245487
0.280578
0.300466
0.314208
0.320858
0.323388
0.322495
0.319206
0.308188
0.293001
0.268929
0.239541
0.198761
0.151063
0.117045
0.0336547
0.0456692
0.0504027
0.0505523
0.0481914
0.0425183
0.0426996
0.0575178
0.159452
0.245536
0.28061
0.300498
0.314236
0.320882
0.32341
0.322514
0.319221
0.308199
0.293009
0.268935
0.239545
0.198762
0.151061
0.117043
0.0336552
0.0456736
0.0504057
0.0505553
0.048196
0.0425226
0.0427021
0.0575077
0.159412
0.24552
0.280603
0.300491
0.314233
0.320881
0.32341
0.322516
0.319225
0.308204
0.293015
0.26894
0.23955
0.198767
0.151067
0.117049
0.0336389
0.0570233
0.0700863
0.0957932
0.111378
0.122324
0.131222
0.140538
0.154837
0.175695
0.210463
0.598164
0.117049
0.276577
0.404632
0.503815
0.591281
0.675618
0.756992
0.850322
0.956358
1.06932
1.20318
1.40078
0.0336522
0.0570293
0.0700892
0.0957927
0.111377
0.122322
0.131226
0.140548
0.154854
0.175717
0.210484
0.598176
0.117033
0.276547
0.404599
0.503772
0.591232
0.675561
0.756929
0.85025
0.956278
1.06923
1.20308
1.40067
0.0336547
0.0570473
0.0701181
0.0958303
0.111413
0.122355
0.131242
0.140545
0.154827
0.175672
0.210441
0.598199
0.117045
0.276569
0.404622
0.5038
0.591263
0.675596
0.756966
0.850293
0.956325
1.06928
1.20314
1.40074
0.0336552
0.0570409
0.0701063
0.0958132
0.111396
0.122339
0.131237
0.140551
0.154849
0.175707
0.210477
0.598214
0.117043
0.276567
0.404624
0.503807
0.591275
0.675613
0.756988
0.85032
0.956357
1.06932
1.20319
1.40079
)
;
    }
    stator
    {
        type            kqRWallFunction;
        value           nonuniform List<scalar> 
192
(
0.116216
0.122216
0.127353
0.129482
0.128109
0.123076
0.114464
0.101755
0.084072
0.0613387
0.0370361
0.014243
0.0246388
0.0300229
0.0441072
0.0567649
0.0657105
0.0725049
0.0784653
0.0847288
0.0915613
0.0981304
0.104275
0.110219
0.116228
0.122229
0.127366
0.129496
0.128124
0.123092
0.114479
0.101769
0.0840849
0.0613483
0.0370419
0.014245
0.02464
0.0300254
0.0441129
0.0567724
0.0657187
0.0725129
0.078473
0.0847366
0.0915693
0.0981383
0.104283
0.110226
0.116235
0.122236
0.127373
0.129503
0.12813
0.123098
0.114484
0.101773
0.0840876
0.06135
0.0370428
0.0142453
0.0246457
0.0300331
0.044128
0.0567905
0.0657392
0.0725348
0.0784949
0.0847571
0.0915876
0.0981546
0.104297
0.110238
0.116244
0.122242
0.127375
0.129501
0.128127
0.123093
0.114479
0.101768