/*--------------------------------*- C++ -*----------------------------------*\
| =========                 |                                                 |
| \\      /  F ield         | OpenFOAM: The Open Source CFD Toolbox           |
|  \\    /   O peration     | Version:  4.0                                   |
|   \\  /    A nd           | Web:      www.OpenFOAM.org                      |
|    \\/     M anipulation  |                                                 |
\*---------------------------------------------------------------------------*/
FoamFile
{
    version     2.0;
    format      ascii;
    class       volScalarField;
    location    "500";
    object      nut;
}
// * * * * * * * * * * * * * * * * * * * * * * * * * * * * * * * * * * * * * //

dimensions      [0 2 -1 0 0 0 0];

internalField   nonuniform List<scalar> 
3072
(
2.86402e-05
6.11061e-05
6.41832e-05
6.42772e-05
6.2761e-05
5.89526e-05
5.90751e-05
6.85395e-05
0.00011412
0.000141695
0.0001515
0.000156781
4.16522e-05
0.00015854
0.000204807
0.000203002
0.000134468
7.78319e-05
0.000122031
0.000146611
0.000206382
0.000297755
0.000404619
0.000544743
5.1022e-05
0.00020624
0.000268239
0.000249101
0.000216945
0.000191352
0.000237358
0.000364472
0.000530535
0.000743805
0.000962456
0.00116654
6.53376e-05
0.000303988
0.000320054
0.000286711
0.000267331
0.00031517
0.000492519
0.000714222
0.000958084
0.00121594
0.00145731
0.00166783
7.65874e-05
0.000357597
0.000370627
0.000352807
0.000396188
0.000580499
0.000829437
0.00108037
0.00133939
0.00160181
0.00184051
0.00204792
8.66938e-05
0.000413862
0.00046491
0.00049371
0.0006493
0.00089228
0.00114678
0.00140738
0.00166409
0.00190825
0.00212916
0.00232297
9.64607e-05
0.000498392
0.000617248
0.000743491
0.000965938
0.00121543
0.00146449
0.00170867
0.00194635
0.00216506
0.00236106
0.00253293
0.000106735
0.000621761
0.000849441
0.0010805
0.00132446
0.00156029
0.00178324
0.00199284
0.0021888
0.00236564
0.00252385
0.00266323
0.000119289
0.000772039
0.00113185
0.00141188
0.00165128
0.00186056
0.00204205
0.00220415
0.00234987
0.00248116
0.00260064
0.00271028
0.000134786
0.000873862
0.00131465
0.00161859
0.0018451
0.00202929
0.00218512
0.00231887
0.00243385
0.00253553
0.0026277
0.00271297
0.000155942
0.000807972
0.00138183
0.0017201
0.00195849
0.00213907
0.00228298
0.00240238
0.00249567
0.00257486
0.00264469
0.00270864
0.000277031
0.000779786
0.00146027
0.00184691
0.0020693
0.00223823
0.00238306
0.00248312
0.00256029
0.00262125
0.00267185
0.00271634
0.000160331
0.000162023
0.000162664
0.000162442
0.000161614
0.000158804
0.000154842
0.000148348
0.00014001
0.000127537
0.000111187
5.3453e-05
0.000686675
0.000812326
0.000906204
0.000941518
0.00092152
0.000868027
0.000780165
0.000657388
0.00050444
0.000308559
0.000155965
9.1814e-05
0.00133871
0.00146695
0.00154215
0.00156066
0.00152566
0.00144403
0.00130912
0.0011225
0.000881985
0.000590704
0.00026401
0.000122725
0.00184165
0.00197294
0.00205797
0.00209397
0.00207817
0.0020051
0.00186693
0.00165379
0.00135481
0.000966095
0.000472629
0.000149969
0.00222092
0.002357
0.00245383
0.00250816
0.00251522
0.00246754
0.00235109
0.00214385
0.00180223
0.00132647
0.00069587
0.00017658
0.00248928
0.00262607
0.00273136
0.00280292
0.00283664
0.00282453
0.00274776
0.00257388
0.00225605
0.00172642
0.000980966
0.000203843
0.00268046
0.00280393
0.0029045
0.00298347
0.00304045
0.00306924
0.00305021
0.00293995
0.00266429
0.00212588
0.00127688
0.000231743
0.00278448
0.00288939
0.00298066
0.00306183
0.00313419
0.00319788
0.00323899
0.00321273
0.00302301
0.00251324
0.00157406
0.000262544
0.00280964
0.00289987
0.00298412
0.00306364
0.00314201
0.00322969
0.00332063
0.00338333
0.00331104
0.00287783
0.00184018
0.000296388
0.00279294
0.0028697
0.00294839
0.00303131
0.0031125
0.00319834
0.00331722
0.00345434
0.00351584
0.00322542
0.00215083
0.000332391
0.00277007
0.00283242
0.00289984
0.00298002
0.00307999
0.00316378
0.0032784
0.00344868
0.00362508
0.00353352
0.00252525
0.000372724
0.00276025
0.0028092
0.00286738
0.00293911
0.00304925
0.0031472
0.00325106
0.00342295
0.00365352
0.00374276
0.00296804
0.000423903
2.86477e-05
6.11174e-05
6.41905e-05
6.42832e-05
6.2766e-05
5.89566e-05
5.90785e-05
6.85415e-05
0.000114122
0.000141699
0.000151504
0.000156786
4.16544e-05
0.000158559
0.000204826
0.000203024
0.000134482
7.78397e-05
0.000122027
0.000146606
0.000206375
0.000297749
0.000404617
0.000544747
5.1023e-05
0.000206251
0.000268245
0.000249109
0.000216935
0.00019134
0.00023734
0.000364445
0.000530515
0.000743792
0.000962455
0.00116655
6.53372e-05
0.00030398
0.000320049
0.000286697
0.000267307
0.000315135
0.000492469
0.000714182
0.000958059
0.00121593
0.00145731
0.00166785
7.65863e-05
0.000357589
0.000370607
0.00035278
0.000396141
0.000580414
0.000829385
0.00108033
0.00133936
0.0016018
0.00184052
0.00204794
8.66926e-05
0.000413847
0.00046488
0.000493653
0.000649222
0.000892214
0.00114674
0.00140734
0.00166407
0.00190824
0.00212917
0.00232299
9.64614e-05
0.000498396
0.000617234
0.000743467
0.0009659
0.0012154
0.00146447
0.00170865
0.00194634
0.00216507
0.00236107
0.00253295
0.000106738
0.000621804
0.000849501
0.00108055
0.0013245
0.00156031
0.00178326
0.00199286
0.00218882
0.00236567
0.00252388
0.00266328
0.000119295
0.000772125
0.00113196
0.00141198
0.00165136
0.00186063
0.00204212
0.00220422
0.00234993
0.00248123
0.00260071
0.00271035
0.000134793
0.000873943
0.00131475
0.00161869
0.0018452
0.0020294
0.00218523
0.00231898
0.00243396
0.00253564
0.0026278
0.00271307
0.00015595
0.00080802
0.00138191
0.00172019
0.0019586
0.00213919
0.00228311
0.00240253
0.00249581
0.00257501
0.00264483
0.00270877
0.000277035
0.000779812
0.00146032
0.00184697
0.0020694
0.00223834
0.00238319
0.00248327
0.00256044
0.00262141
0.00267201
0.0027165
0.000160336
0.000162028
0.000162669
0.000162447
0.000161619
0.000158809
0.000154847
0.000148353
0.000140015
0.000127541
0.000111191
5.34557e-05
0.000686686
0.000812346
0.000906231
0.000941549
0.000921553
0.000868061
0.000780196
0.000657416
0.000504465
0.000308574
0.000155973
9.18175e-05
0.00133873
0.00146698
0.00154219
0.00156071
0.00152571
0.00144408
0.00130918
0.00112255
0.000882026
0.000590734
0.000264022
0.000122729
0.00184168
0.00197298
0.00205802
0.00209403
0.00207824
0.00200517
0.001867
0.00165385
0.00135486
0.000966131
0.000472649
0.000149973
0.00222095
0.00235704
0.00245389
0.00250823
0.00251529
0.00246762
0.00235117
0.00214393
0.0018023
0.00132652
0.000695896
0.000176585
0.00248931
0.00262611
0.00273141
0.00280298
0.00283672
0.00282462
0.00274785
0.00257397
0.00225614
0.00172648
0.000981
0.000203848
0.0026805
0.00280397
0.00290455
0.00298354
0.00304054
0.00306933
0.00305032
0.00294006
0.00266439
0.00212596
0.00127692
0.000231748
0.00278453
0.00288945
0.00298072
0.00306191
0.00313428
0.00319798
0.0032391
0.00321286
0.00302313
0.00251333
0.00157411
0.00026255
0.00280971
0.00289995
0.0029842
0.00306372
0.00314211
0.0032298
0.00332076
0.00338348
0.00331118
0.00287795
0.00184024
0.000296396
0.00279305
0.0028698
0.00294849
0.00303142
0.00311262
0.00319847
0.00331736
0.0034545
0.003516
0.00322556
0.0021509
0.0003324
0.0027702
0.00283255
0.00289997
0.00298015
0.00308013
0.00316393
0.00327857
0.00344887
0.00362527
0.00353369
0.00252533
0.000372733
0.00276041
0.00280936
0.00286754
0.00293927
0.00304942
0.00314738
0.00325125
0.00342315
0.00365374
0.00374296
0.00296815
0.000423913
2.86493e-05
6.11165e-05
6.41927e-05
6.42855e-05
6.27668e-05
5.8957e-05
5.90807e-05
6.85568e-05
0.000114153
0.000141712
0.000151512
0.000156794
4.16621e-05
0.000158574
0.000204817
0.000202976
0.000134408
7.78044e-05
0.000122076
0.000146663
0.000206465
0.000297864
0.000404754
0.000544893
5.10351e-05
0.000206298
0.000268249
0.000249076
0.000216956
0.000191394
0.000237484
0.00036467
0.000530771
0.000744077
0.000962739
0.00116682
6.53517e-05
0.000304051
0.000320056
0.000286753
0.000267417
0.00031534
0.000492838
0.00071456
0.000958432
0.0012163
0.00145766
0.00166818
7.66007e-05
0.000357646
0.000370708
0.000352922
0.000396399
0.000580979
0.00082982
0.00108078
0.00133981
0.00160223
0.00184092
0.00204832
8.6706e-05
0.000413963
0.000465077
0.000493999
0.000649756
0.000892713
0.00114721
0.00140783
0.00166454
0.0019087
0.0021296
0.00232341
9.6469e-05
0.000498471
0.000617442
0.000743794
0.000966318
0.00121583
0.0014649
0.0017091
0.0019468
0.00216551
0.0023615
0.00253337
0.000106739
0.000621766
0.000849512
0.00108066
0.00132471
0.00156059
0.00178359
0.00199322
0.00218921
0.00236607
0.00252426
0.00266365
0.000119286
0.000771943
0.00113185
0.00141196
0.00165143
0.00186079
0.00204233
0.00220447
0.00235022
0.00248153
0.00260103
0.00271067
0.000134777
0.000873773
0.00131465
0.00161864
0.0018452
0.00202943
0.00218531
0.00231911
0.00243413
0.00253585
0.00262804
0.00271332
0.000155933
0.000807937
0.00138184
0.00172014
0.00195854
0.00213916
0.0022831
0.00240257
0.00249589
0.00257513
0.00264499
0.00270895
0.000277039
0.000779821
0.0014603
0.00184696
0.00206936
0.00223831
0.00238317
0.00248327
0.00256048
0.00262147
0.0026721
0.00271662
0.000160343
0.000162034
0.000162675
0.000162452
0.000161623
0.000158812
0.00015485
0.000148354
0.000140016
0.000127541
0.000111191
5.34552e-05
0.000686845
0.000812492
0.000906374
0.000941673
0.000921663
0.000868146
0.000780268
0.000657466
0.000504494
0.000308586
0.000155975
9.18171e-05
0.00133899
0.00146723
0.00154242
0.00156091
0.00152589
0.00144422
0.00130929
0.00112263
0.000882084
0.000590767
0.000264031
0.000122729
0.001842
0.00197329
0.00205831
0.00209429
0.00207847
0.00200537
0.00186716
0.00165398
0.00135495
0.000966185
0.000472669
0.000149974
0.00222132
0.00235739
0.00245422
0.00250854
0.00251557
0.00246787
0.00235138
0.0021441
0.00180242
0.0013266
0.000695925
0.000176587
0.00248971
0.00262649
0.00273177
0.00280332
0.00283703
0.00282491
0.0027481
0.00257418
0.00225629
0.00172658
0.000981041
0.00020385
0.0026809
0.00280436
0.00290493
0.0029839
0.00304088
0.00306965
0.0030506
0.0029403
0.00266458
0.00212607
0.00127697
0.000231752
0.0027849
0.00288982
0.00298109
0.00306227
0.00313463
0.00319831
0.00323941
0.00321313
0.00302335
0.00251347
0.00157417
0.000262554
0.00281004
0.00290028
0.00298453
0.00306406
0.00314245
0.00323013
0.00332107
0.00338377
0.00331142
0.00287812
0.00184031
0.0002964
0.00279331
0.00287009
0.00294878
0.00303172
0.00311293
0.00319877
0.00331767
0.0034548
0.00351628
0.00322576
0.00215098
0.000332405
0.00277041
0.00283277
0.0029002
0.0029804
0.00308039
0.0031642
0.00327884
0.00344916
0.00362556
0.00353392
0.00252542
0.00037274
0.00276055
0.00280951
0.00286771
0.00293947
0.00304962
0.00314759
0.00325149
0.00342342
0.00365405
0.00374323
0.00296826
0.000423921
2.86492e-05
6.11187e-05
6.41937e-05
6.42866e-05
6.27689e-05
5.89592e-05
5.9082e-05
6.85509e-05
0.000114139
0.000141708
0.000151511
0.000156792
4.1659e-05
0.000158571
0.000204834
0.000203016
0.000134461
7.78304e-05
0.000122055
0.000146634
0.00020642
0.000297807
0.000404689
0.000544827
5.10298e-05
0.000206281
0.000268263
0.000249112
0.000216959
0.000191374
0.000237402
0.000364548
0.000530637
0.000743934
0.000962604
0.0011667
6.53449e-05
0.000304022
0.000320068
0.000286734
0.000267363
0.000315227
0.000492625
0.000714354
0.00095824
0.00121612
0.00145749
0.00166803
7.65938e-05
0.000357625
0.00037066
0.000352847
0.000396253
0.000580638
0.000829575
0.00108054
0.00133958
0.00160201
0.00184073
0.00204815
8.66996e-05
0.0004139
0.000464962
0.000493791
0.000649426
0.000892418
0.00114694
0.00140757
0.00166429
0.00190847
0.00212939
0.00232322
9.64661e-05
0.000498426
0.00061731
0.000743583
0.000966057
0.00121557
0.00146466
0.00170886
0.00194656
0.00216529
0.0023613
0.00253318
0.00010674
0.00062179
0.000849499
0.00108059
0.00132459
0.00156044
0.00178342
0.00199304
0.00218902
0.00236588
0.00252409
0.00266349
0.000119294
0.000772066
0.00113193
0.001412
0.00165142
0.00186073
0.00204224
0.00220437
0.0023501
0.00248141
0.0026009
0.00271055
0.000134789
0.000873903
0.00131475
0.00161872
0.00184526
0.00202947
0.00218533
0.0023191
0.0024341
0.0025358
0.00262798
0.00271326
0.000155947
0.000808023
0.00138194
0.00172024
0.00195865
0.00213926
0.0022832
0.00240263
0.00249593
0.00257515
0.00264499
0.00270894
0.000277043
0.00077986
0.00146038
0.00184706
0.00206948
0.00223844
0.0023833
0.00248338
0.00256057
0.00262155
0.00267216
0.00271666
0.000160342
0.000162034
0.000162675
0.000162452
0.000161624
0.000158813
0.000154851
0.000148356
0.000140017
0.000127543
0.000111193
5.34566e-05
0.000686777
0.000812433
0.000906321
0.000941631
0.000921627
0.000868122
0.000780249
0.000657456
0.000504492
0.000308587
0.000155977
9.18188e-05
0.00133888
0.00146713
0.00154233
0.00156084
0.00152583
0.00144418
0.00130927
0.00112262
0.000882076
0.000590765
0.000264031
0.00012273
0.00184186
0.00197316
0.0020582
0.0020942
0.00207839
0.00200531
0.00186712
0.00165395
0.00135493
0.000966177
0.000472668
0.000149975
0.00222116
0.00235725
0.00245409
0.00250842
0.00251548
0.00246779
0.00235132
0.00214405
0.0018024
0.00132659
0.000695924
0.000176588
0.00248953
0.00262633
0.00273163
0.0028032
0.00283692
0.00282482
0.00274803
0.00257412
0.00225626
0.00172656
0.000981037
0.000203851
0.00268073
0.0028042
0.00290478
0.00298377
0.00304076
0.00306955
0.00305052
0.00294023
0.00266454
0.00212605
0.00127697
0.000231752
0.00278475
0.00288967
0.00298095
0.00306214
0.00313451
0.00319821
0.00323932
0.00321306
0.0030233
0.00251345
0.00157416
0.000262555
0.00280992
0.00290016
0.00298442
0.00306395
0.00314235
0.00323004
0.00332099
0.0033837
0.00331137
0.00287808
0.00184031
0.000296401
0.00279324
0.00287001
0.0029487
0.00303164
0.00311285
0.0031987
0.0033176
0.00345473
0.00351621
0.00322572
0.00215096
0.000332405
0.00277039
0.00283275
0.00290018
0.00298037
0.00308035
0.00316415
0.0032788
0.0034491
0.00362548
0.00353385
0.0025254
0.000372739
0.00276058
0.00280954
0.00286773
0.00293948
0.00304962
0.00314758
0.00325146
0.00342337
0.00365396
0.00374314
0.00296822
0.000423919
0.00172755
0.00181684
0.00196175
0.00212377
0.00227078
0.00239606
0.00250439
0.00257811
0.00263447
0.00267616
0.00270857
0.00273565
0.00285017
0.00266369
0.00259822
0.00258917
0.00260906
0.00263634
0.00266091
0.00268529
0.002711
0.00272965
0.00274471
0.00275911
0.00361333
0.00337095
0.00318759
0.00305812
0.00296448
0.00289993
0.00285601
0.0028296
0.00281635
0.00280182
0.00279129
0.00279686
0.00388779
0.00369556
0.0034955
0.003315
0.00317002
0.00305518
0.00296407
0.00289947
0.00286177
0.00284727
0.00285156
0.00287771
0.00276558
0.00280647
0.00286212
0.00293652
0.00305033
0.00315823
0.00326208
0.0034328
0.00366391
0.00392029
0.003913
0.00182246
0.00278458
0.00282982
0.0028944
0.00298181
0.00309194
0.00320858
0.0033224
0.0034842
0.00369273
0.00393588
0.00433188
0.0031902
0.00283296
0.00289958
0.00298651
0.00308351
0.00319169
0.00331853
0.00344456
0.00359044
0.00376281
0.0039417
0.00431136
0.00389492
0.00294409
0.0030526
0.00315275
0.00326443
0.00338188
0.00350977
0.00363506
0.00376051
0.00388956
0.00400039
0.00422614
0.00408457
0.00172758
0.00181689
0.00196179
0.00212383
0.00227087
0.00239616
0.00250451
0.00257824
0.00263461
0.00267631
0.00270873
0.00273582
0.00285018
0.00266375
0.00259827
0.00258926
0.00260916
0.00263644
0.00266103
0.00268542
0.00271114
0.00272981
0.00274488
0.00275928
0.00361322
0.00337107
0.0031877
0.00305824
0.0029646
0.00290005
0.00285614
0.00282974
0.0028165
0.00280198
0.00279147
0.00279705
0.00388763
0.00369561
0.00349569
0.00331517
0.00317019
0.00305534
0.00296423
0.00289962
0.00286193
0.00284745
0.00285174
0.0028779
0.00276576
0.00280664
0.00286231
0.00293671
0.00305053
0.00315844
0.00326229
0.00343303
0.00366416
0.00392054
0.00391318
0.00182254
0.00278476
0.00283001
0.00289461
0.00298202
0.00309216
0.00320881
0.00332264
0.00348445
0.00369299
0.00393616
0.00433213
0.00319036
0.00283316
0.00289979
0.00298673
0.00308374
0.00319193
0.00331878
0.00344482
0.00359071
0.00376309
0.00394198
0.00431164
0.00389514
0.0029443
0.00305283
0.00315299
0.00326468
0.00338214
0.00351003
0.00363532
0.00376078
0.00388984
0.00400067
0.00422642
0.0040848
0.00172767
0.00181697
0.00196187
0.00212389
0.00227089
0.00239619
0.00250452
0.00257827
0.00263465
0.00267636
0.00270879
0.0027359
0.00285033
0.00266388
0.00259841
0.00258936
0.00260924
0.00263652
0.0026611
0.00268548
0.00271119
0.00272985
0.00274492
0.00275934
0.00361342
0.00337124
0.00318787
0.00305838
0.00296473
0.00290017
0.00285624
0.00282983
0.00281656
0.00280202
0.0027915
0.00279709
0.00388785
0.00369579
0.00349586
0.00331531
0.00317031
0.00305546
0.00296433
0.00289971
0.00286198
0.00284749
0.00285178
0.00287794
0.00276585
0.00280675
0.00286243
0.00293686
0.00305069
0.00315861
0.0032625
0.00343329
0.00366446
0.00392085
0.00391335
0.00182257
0.00278483
0.00283008
0.0028947
0.00298214
0.0030923
0.00320897
0.00332285
0.0034847
0.00369329
0.0039365
0.00433241
0.00319048
0.00283321
0.00289986
0.00298684
0.00308386
0.00319209
0.00331897
0.00344504
0.00359098
0.0037634
0.00394232
0.004312
0.00389538
0.00294437
0.00305293
0.00315313
0.00326486
0.00338236
0.00351029
0.00363559
0.0037611
0.00389017
0.00400103
0.00422679
0.00408511
0.00172767
0.00181699
0.00196192
0.00212397
0.002271
0.00239631
0.00250465
0.00257839
0.00263476
0.00267647
0.00270889
0.00273598
0.00285041
0.00266395
0.00259848
0.00258944
0.00260934
0.00263663
0.00266122
0.00268561
0.00271132
0.00272998
0.00274504
0.00275945
0.00361361
0.00337139
0.00318799
0.0030585
0.00296485
0.00290029
0.00285636
0.00282996
0.00281669
0.00280215
0.00279162
0.00279721
0.00388811
0.00369601
0.00349602
0.00331546
0.00317045
0.00305559
0.00296446
0.00289984
0.0028621
0.0028476
0.00285189
0.00287804
0.00276592
0.00280682
0.00286249
0.00293689
0.00305072
0.00315863
0.00326249
0.00343323
0.00366436
0.00392073
0.00391327
0.00182257
0.00278493
0.00283018
0.00289477
0.00298219
0.00309233
0.00320897
0.00332281
0.00348461
0.00369316
0.00393634
0.00433224
0.0031904
0.00283332
0.00289994
0.00298688
0.00308389
0.00319207
0.00331892
0.00344496
0.00359085
0.00376324
0.00394214
0.00431177
0.00389522
0.00294442
0.00305295
0.0031531
0.00326479
0.00338225
0.00351016
0.00363545
0.00376091
0.00388997
0.00400082
0.00422653
0.00408491
0.00375336
0.00355874
0.00337136
0.00320651
0.0030727
0.00296783
0.0028906
0.00284261
0.00282611
0.00284113
0.00289708
0.00300829
0.00366413
0.00347516
0.00329706
0.00313789
0.00300281
0.00289167
0.00280656
0.00274738
0.00271555
0.00271228
0.00275386
0.00287091
0.00360091
0.00342222
0.00325045
0.00308918
0.00294193
0.00281013
0.00269544
0.00259056
0.00249351
0.00240503
0.00233849
0.00236263
0.00354759
0.00338316
0.00321781
0.00305153
0.00288528
0.00272172
0.00255701
0.0023843
0.00218742
0.00195784
0.00169469
0.00148085
0.00314709
0.0033488
0.00348246
0.00359417
0.00370465
0.00381216
0.00390454
0.00398385
0.00404759
0.00408977
0.00410754
0.00396249
0.00305475
0.00344307
0.00362143
0.00373543
0.00384011
0.00393138
0.00400434
0.00405462
0.00407703
0.00407468
0.00402794
0.00386143
0.00255806
0.00333171
0.00362056
0.00375763
0.00386581
0.0039485
0.00401073
0.00404063
0.00404345
0.00402315
0.00394742
0.00378339
0.00153164
0.00297193
0.0034985
0.00369791
0.00381762
0.00389917
0.0039557
0.00397586
0.00397221
0.00394498
0.00386421
0.00371335
0.00375338
0.00355887
0.00337157
0.00320671
0.00307289
0.00296801
0.00289076
0.00284278
0.00282628
0.00284131
0.00289727
0.00300849
0.00366425
0.00347535
0.00329728
0.0031381
0.00300301
0.00289186
0.00280673
0.00274754
0.00271571
0.00271244
0.00275402
0.00287108
0.00360108
0.00342244
0.0032507
0.00308941
0.00294215
0.00281032
0.00269562
0.00259072
0.00249365
0.00240516
0.00233861
0.00236276
0.00354777
0.0033834
0.00321806
0.00305177
0.0028855
0.00272193
0.00255719
0.00238445
0.00218755
0.00195795
0.00169477
0.00148091
0.0031473
0.00334904
0.00348271
0.00359442
0.00370492
0.00381242
0.00390481
0.00398412
0.00404785
0.00409003
0.00410778
0.0039627
0.00305494
0.0034433
0.00362169
0.0037357
0.00384038
0.00393165
0.00400461
0.00405488
0.00407727
0.00407491
0.00402816
0.00386162
0.00255821
0.00333193
0.00362081
0.0037579
0.00386608
0.00394877
0.00401099
0.00404088
0.00404369
0.00402337
0.00394762
0.00378357
0.00153172
0.00297211
0.00349874
0.00369817
0.0038179
0.00389944
0.00395596
0.00397611
0.00397244
0.0039452
0.0038644
0.00371351
0.00375357
0.00355903
0.0033717
0.00320683
0.00307299
0.00296809
0.00289084
0.00284283
0.00282632
0.00284136
0.00289733
0.00300859
0.00366441
0.00347549
0.0032974
0.00313819
0.00300309
0.00289192
0.00280678
0.00274758
0.00271574
0.0027125
0.00275408
0.0028712
0.00360123
0.00342256
0.00325079
0.00308948
0.0029422
0.00281036
0.00269566
0.00259074
0.00249369
0.00240522
0.00233863
0.00236282
0.0035479
0.0033835
0.00321814
0.00305183
0.00288554
0.00272196
0.00255721
0.00238445
0.00218757
0.00195797
0.00169479
0.00148093
0.00314747
0.00334924
0.00348296
0.00359471
0.00370522
0.00381275
0.00390514
0.00398446
0.00404821
0.00409038
0.00410811
0.00396299
0.00305513
0.00344356
0.00362201
0.00373606
0.00384076
0.00393203
0.00400498
0.00405525
0.00407764
0.00407526
0.00402848
0.00386189
0.00255837
0.0033322
0.00362118
0.00375831
0.0038665
0.00394919
0.00401139
0.00404127
0.00404406
0.00402373
0.00394793
0.00378384
0.0015318
0.00297238
0.00349914
0.00369862
0.00381835
0.00389989
0.00395637
0.0039765
0.00397283
0.00394556
0.00386471
0.00371378
0.00375381
0.00355923
0.00337187
0.00320698
0.00307313
0.00296822
0.00289096
0.00284295
0.00282641
0.00284141
0.00289737
0.00300858
0.00366465
0.00347568
0.00329757
0.00313835
0.00300323
0.00289205
0.00280689
0.00274767
0.00271581
0.00271251
0.00275408
0.00287113
0.00360146
0.00342275
0.00325096
0.00308964
0.00294234
0.00281048
0.00269574
0.00259083
0.00249372
0.00240521
0.00233865
0.00236278
0.00354814
0.0033837
0.00321831
0.00305198
0.00288567
0.00272207
0.0025573
0.00238454
0.00218761
0.00195798
0.00169478
0.00148091
0.00314738
0.00334913
0.00348281
0.00359452
0.00370502
0.00381253
0.00390492
0.00398424
0.00404798
0.00409016
0.00410792
0.00396285
0.003055
0.00344337
0.00362177
0.00373579
0.00384048
0.00393175
0.00400472
0.004055
0.0040774
0.00407504
0.00402831
0.00386176
0.00255825
0.00333198
0.00362088
0.00375798
0.00386617
0.00394887
0.0040111
0.00404099
0.0040438
0.0040235
0.00394778
0.00378371
0.00153174
0.00297215
0.0034988
0.00369825
0.00381798
0.00389953
0.00395606
0.00397621
0.00397255
0.00394532
0.00386455
0.00371364
0.00349307
0.00334694
0.00319015
0.00301913
0.00283339
0.00263845
0.00242375
0.0021786
0.00188141
0.001493
0.000915593
0.000284008
0.00342903
0.00330317
0.00315881
0.00298688
0.0027896
0.00257137
0.00231905
0.00202328
0.00166917
0.00123239
0.000628041
0.00014762
0.00334811
0.00324358
0.00311608
0.00294938
0.00275071
0.00252165
0.00224981
0.00193033
0.00156167
0.00115652
0.000639829
0.000128511
0.00324556
0.003162
0.0030546
0.00289968
0.00270898
0.00248152
0.00220764
0.00188841
0.00153652
0.00118795
0.000740509
0.000131187
0.00311805
0.0030538
0.00296693
0.00282935
0.00265387
0.00243792
0.00217489
0.00187066
0.00154403
0.00121244
0.000796855
0.000135785
0.00295851
0.00291248
0.00284437
0.00272806
0.00257281
0.00237488
0.0021298
0.00184487
0.00153513
0.00119547
0.000798009
0.000139234
0.00275532
0.00272637
0.00267562
0.00258184
0.00245014
0.00227363
0.00204927
0.00178259
0.00148185
0.00113509
0.000755299
0.00014001
0.00248847
0.00247563
0.00244109
0.00236925
0.00226301
0.00211023
0.00190863
0.00165958
0.00136762
0.00103054
0.000670225
0.000138117
0.00212497
0.00212623
0.00210752
0.00205618
0.00197313
0.00184857
0.00167875
0.00145011
0.001175
0.000867982
0.000545232
0.000132512
0.00161185
0.00162304
0.00161813
0.00158554
0.00152418
0.00143447
0.0013129
0.00112047
0.00088804
0.000638487
0.000378768
0.000122024
0.000881808
0.000893673
0.000897089
0.000882334
0.000850682
0.000802393
0.000741096
0.000635135
0.000481613
0.000333996
0.000177458
0.000104727
9.53123e-05
9.77392e-05
9.9771e-05
0.000100602
0.000100069
9.80841e-05
9.45903e-05
8.91843e-05
8.10654e-05
6.9242e-05
5.38022e-05
3.33618e-05
0.000385106
0.00245434
0.00329595
0.00358006
0.00371584
0.00380206
0.00385865
0.00387753
0.00387138
0.00384435
0.0037714
0.00364026
0.000340341
0.00219394
0.0030804
0.00342153
0.00357333
0.00366733
0.00372958
0.00375277
0.00374855
0.00372429
0.00366311
0.00355557
0.000316808
0.00198341
0.00285756
0.00323032
0.00339859
0.00350162
0.0035721
0.00360301
0.00360773
0.00358837
0.00353784
0.0034511
0.000298318
0.00178881
0.00262719
0.00301383
0.00319679
0.00330867
0.00338735
0.00342792
0.00344373
0.00343277
0.00339451
0.00332714
0.000281582
0.00159818
0.00238666
0.00277636
0.00296995
0.00308902
0.00317403
0.0032252
0.00325125
0.00325221
0.00322821
0.00317979
0.000264976
0.00140106
0.00213341
0.00251832
0.00271685
0.00283985
0.00292919
0.00298962
0.00302589
0.00303933
0.00303085
0.00300169
0.000248345
0.00118039
0.00186205
0.00223707
0.00243253
0.00255436
0.00264528
0.00271284
0.00275896
0.00278454
0.00279081
0.00277973
0.000231718
0.000940261
0.00156737
0.00192729
0.00210701
0.00222014
0.00230849
0.00238013
0.00243452
0.00247083
0.00249009
0.00249492
0.0002137
0.000706713
0.00125078
0.00157634
0.00172256
0.0018169
0.00189642
0.00196728
0.00202629
0.00207014
0.00209912
0.00211642
0.000192561
0.000495316
0.000909923
0.00115134
0.00123876
0.00130196
0.0013654
0.00143046
0.00149054
0.00153884
0.00157107
0.00159441
0.000167489
0.000302684
0.00051332
0.000606225
0.000633834
0.000663464
0.000699695
0.000742724
0.000787482
0.000825454
0.00084878
0.000866584
4.39032e-05
4.84721e-05
5.87736e-05
6.66706e-05
7.17267e-05
7.5335e-05
7.83581e-05
8.14132e-05
8.46218e-05
8.75967e-05
9.02913e-05
9.2824e-05
0.00349329
0.00334719
0.00319042
0.0030194
0.00283364
0.00263867
0.00242394
0.00217876
0.00188154
0.00149309
0.000915636
0.000284018
0.00342927
0.00330342
0.00315908
0.00298715
0.00278986
0.00257161
0.00231926
0.00202346
0.00166932
0.00123249
0.000628106
0.000147632
0.00334834
0.00324383
0.00311635
0.00294967
0.00275098
0.0025219
0.00225004
0.00193053
0.00156184
0.00115666
0.000639922
0.000128524
0.00324579
0.00316224
0.00305487
0.00289996
0.00270925
0.00248178
0.00220788
0.00188863
0.0015367
0.00118811
0.000740614
0.000131201
0.00311829
0.00305404
0.00296719
0.00282963
0.00265414
0.00243818
0.00217513
0.00187088
0.00154423
0.0012126
0.000796967
0.000135799
0.00295875
0.00291271
0.00284462
0.00272833
0.00257307
0.00237513
0.00213004
0.00184509
0.00153532
0.00119563
0.000798121
0.000139248
0.00275555
0.00272659
0.00267585
0.00258208
0.00245038
0.00227387
0.0020495
0.0017828
0.00148204
0.00113524
0.000755408
0.000140024
0.00248867
0.00247582
0.0024413
0.00236946
0.00226323
0.00211045
0.00190883
0.00165977
0.00136778
0.00103068
0.000670321
0.00013813
0.00212513
0.00212639
0.00210769
0.00205635
0.00197331
0.00184875
0.00167892
0.00145027
0.00117514
0.000868094
0.000545308
0.000132524
0.00161196
0.00162315
0.00161825
0.00158567
0.00152431
0.00143459
0.00131303
0.00112059
0.000888147
0.000638568
0.00037882
0.000122034
0.000881873
0.000893728
0.000897146
0.000882396
0.000850748
0.00080246
0.000741161
0.000635202
0.000481673
0.000334038
0.000177483
0.000104736
9.53168e-05
9.77441e-05
9.9776e-05
0.000100608
0.000100074
9.80901e-05
9.45965e-05
8.91903e-05
8.10714e-05
6.92473e-05
5.38063e-05
3.33641e-05
0.000385119
0.00245447
0.00329617
0.00358032
0.00371612
0.00380234
0.00385891
0.00387777
0.00387161
0.00384456
0.00377158
0.00364042
0.000340352
0.00219406
0.00308062
0.00342179
0.00357361
0.0036676
0.00372984
0.00375301
0.00374878
0.00372449
0.00366329
0.00355572
0.000316818
0.00198352
0.00285777
0.00323058
0.00339887
0.00350189
0.00357236
0.00360325
0.00360795
0.00358857
0.00353802
0.00345124
0.000298327
0.00178892
0.00262738
0.00301408
0.00319706
0.00330894
0.00338761
0.00342816
0.00344394
0.00343296
0.00339469
0.00332729
0.000281591
0.00159828
0.00238685
0.0027766
0.00297021
0.00308928
0.00317428
0.00322543
0.00325146
0.0032524
0.00322838
0.00317993
0.000264985
0.00140115
0.00213359
0.00251854
0.00271709
0.0028401
0.00292942
0.00298984
0.0030261
0.00303952
0.00303102
0.00300183
0.000248354
0.00118048
0.00186221
0.00223727
0.00243274
0.00255458
0.00264549
0.00271304
0.00275914
0.00278471
0.00279097
0.00277987
0.000231726
0.000940337
0.00156752
0.00192746
0.00210719
0.00222033
0.00230867
0.0023803
0.00243468
0.00247098
0.00249023
0.00249504
0.000213708
0.000706776
0.0012509
0.00157648
0.00172271
0.00181705
0.00189656
0.00196742
0.00202642
0.00207026
0.00209923
0.00211652
0.000192567
0.000495364
0.000910019
0.00115143
0.00123885
0.00130205
0.00136549
0.00143055
0.00149063
0.00153892
0.00157115
0.00159448
0.000167494
0.00030271
0.000513373
0.00060627
0.000633875
0.000663504
0.000699733
0.000742764
0.000787525
0.000825495
0.00084882
0.000866621
4.39044e-05
4.84741e-05
5.87773e-05
6.66749e-05
7.17309e-05
7.5339e-05
7.83617e-05
8.14167e-05
8.46253e-05
8.76001e-05
9.02945e-05
9.28272e-05
0.00349341
0.00334728
0.00319048
0.00301944
0.00283366
0.00263868
0.00242394
0.00217875
0.00188154
0.00149309
0.000915641
0.000284028
0.00342938
0.0033035
0.00315914
0.00298719
0.00278987
0.00257161
0.00231925
0.00202344
0.0016693
0.00123247
0.000628084
0.000147632
0.00334845
0.00324391
0.00311641
0.0029497
0.00275099
0.00252189
0.00225002
0.0019305
0.00156181
0.00115662
0.000639886
0.000128523
0.00324591
0.00316232
0.00305493
0.0029
0.00270926
0.00248177
0.00220785
0.00188859
0.00153666
0.00118807
0.000740582
0.000131199
0.00311841
0.00305412
0.00296725
0.00282967
0.00265415
0.00243817
0.00217511
0.00187085
0.00154419
0.00121257
0.000796939
0.000135797
0.00295887
0.0029128
0.00284469
0.00272837
0.0025731
0.00237514
0.00213003
0.00184506
0.00153529
0.0011956
0.000798097
0.000139247
0.00275566
0.00272667
0.00267592
0.00258213
0.00245042
0.00227388
0.0020495
0.00178279
0.00148202
0.00113522
0.000755387
0.000140023
0.00248878
0.00247591
0.00244137
0.00236952
0.00226327
0.00211047
0.00190884
0.00165977
0.00136777
0.00103066
0.000670304
0.000138129
0.00212522
0.00212646
0.00210775
0.0020564
0.00197335
0.00184877
0.00167894
0.00145028
0.00117514
0.000868087
0.000545295
0.000132524
0.00161203
0.0016232
0.00161829
0.00158571
0.00152434
0.00143462
0.00131304
0.0011206
0.000888149
0.000638566
0.000378814
0.000122034
0.000881908