/*--------------------------------*- C++ -*----------------------------------*\
| =========                 |                                                 |
| \\      /  F ield         | OpenFOAM: The Open Source CFD Toolbox           |
|  \\    /   O peration     | Version:  4.0                                   |
|   \\  /    A nd           | Web:      www.OpenFOAM.org                      |
|    \\/     M anipulation  |                                                 |
\*---------------------------------------------------------------------------*/
FoamFile
{
    version     2.0;
    format      ascii;
    class       volScalarField;
    location    "500";
    object      p;
}
// * * * * * * * * * * * * * * * * * * * * * * * * * * * * * * * * * * * * * //

dimensions      [0 2 -2 0 0 0 0];

internalField   nonuniform List<scalar> 
3072
(
-4.27021e-05
-0.10949
-0.209901
-0.277524
-0.311751
-0.295923
-0.253878
-0.195781
-0.082373
0.109307
0.0762551
-0.146753
0.672518
0.483944
0.356854
0.285174
0.276651
0.354578
0.58209
0.812137
1.3239
2.00081
2.32433
2.49472
1.36324
1.07768
0.945158
0.925717
1.02374
1.253
1.68644
2.13447
2.53437
2.90965
3.15097
3.33644
2.24862
1.97022
1.89528
1.97435
2.24543
2.67525
3.14653
3.57866
3.95373
4.26924
4.49595
4.67961
3.25442
3.08247
3.10309
3.30519
3.6849
4.14086
4.58159
4.96776
5.3011
5.5678
5.76485
5.91774
4.3236
4.26712
4.39743
4.6989
5.1153
5.54747
5.93808
6.26977
6.54177
6.75715
6.92066
7.04609
5.39179
5.46648
5.69243
6.05493
6.47169
6.86694
7.20421
7.47931
7.69804
7.86801
7.99666
8.09388
6.45307
6.68207
6.97504
7.36304
7.75518
8.09963
8.37972
8.59947
8.76798
8.89483
8.989
9.05882
7.5191
7.92391
8.25591
8.6363
8.98074
9.26174
9.4774
9.6377
9.75438
9.83821
9.89858
9.94232
8.61951
9.16075
9.51612
9.86764
10.1493
10.3522
10.4932
10.5885
10.6516
10.6931
10.7217
10.7419
9.76523
10.4665
10.7798
11.0217
11.2121
11.3247
11.3871
11.4196
11.4343
11.4406
11.4449
11.4484
10.7864
11.7874
11.9713
12.0224
12.0903
12.1114
12.1066
12.0916
12.0748
12.0619
12.0565
12.055
-0.361909
-0.502563
-0.471505
-0.309661
-0.00770163
0.391935
0.879925
1.38282
1.83792
2.18341
2.33354
2.20626
2.58542
2.65843
2.69803
2.7521
2.82506
2.93185
3.04675
3.1647
3.25914
3.4047
3.35731
2.70069
3.46292
3.55139
3.62821
3.71388
3.80685
3.89596
3.97515
4.01684
3.98994
3.96474
3.82116
2.86281
4.817
4.92054
5.00014
5.06107
5.09985
5.11456
5.10025
5.02456
4.86626
4.67186
4.39803
3.16795
6.02938
6.10886
6.16245
6.19389
6.20199
6.18243
6.12425
6.0132
5.81973
5.54139
5.20984
3.77804
7.13793
7.20228
7.24301
7.26201
7.25824
7.2279
7.16083
7.04398
6.85338
6.56523
6.21933
4.79492
8.1647
8.2137
8.24397
8.25711
8.25282
8.22867
8.17841
8.0914
7.94884
7.72588
7.45041
6.16891
9.10953
9.14489
9.16801
9.18088
9.18444
9.17828
9.15978
9.12381
9.06259
8.95718
8.84182
7.89561
9.9743
9.99733
10.0148
10.0294
10.0443
10.0613
10.0814
10.107
10.1449
10.196
10.327
9.90653
10.7577
10.77
10.7826
10.7985
10.8233
10.8628
10.9204
11.0059
11.1399
11.3538
11.8388
12.1361
11.4538
11.4588
11.4682
11.4846
11.5149
11.5694
11.6549
11.7866
11.9917
12.3392
13.2194
14.3951
12.0595
12.0621
12.0709
12.0873
12.1179
12.1753
12.2695
12.4196
12.6441
13.0337
14.0149
15.8842
-0.000126561
-0.109594
-0.210023
-0.27765
-0.311877
-0.296051
-0.254005
-0.195916
-0.082506
0.109182
0.0761337
-0.146883
0.672416
0.483818
0.356723
0.285038
0.276517
0.354434
0.581918
0.811986
1.32372
2.00071
2.32425
2.49464
1.36315
1.07756
0.945021
0.925565
1.02358
1.25282
1.68625
2.1343
2.53421
2.90948
3.15085
3.33633
2.24853
1.97009
1.89512
1.97416
2.24521
2.67503
3.14635
3.57852
3.95362
4.26916
4.49587
4.67953
3.25435
3.08235
3.10293
3.30499
3.6847
4.14069
4.58146
4.96766
5.30102
5.56774
5.76478
5.91768
4.32353
4.26701
4.39729
4.69875
5.11516
5.54737
5.938
6.26971
6.54171
6.75711
6.92061
7.04604
5.39174
5.46639
5.69232
6.05482
6.4716
6.86688
7.20417
7.47927
7.69801
7.86798
7.99663
8.09384
6.45304
6.682
6.97497
7.36297
7.75512
8.0996
8.3797
8.59945
8.76797
8.89481
8.98897
9.0588
7.51907
7.92386
8.25585
8.63625
8.98071
9.26172
9.47739
9.63768
9.75436
9.83819
9.89856
9.9423
8.61949
9.16071
9.51608
9.8676
10.1492
10.3522
10.4932
10.5885
10.6515
10.693
10.7216
10.7419
9.7652
10.4664
10.7798
11.0217
11.2121
11.3247
11.387
11.4196
11.4343
11.4406
11.4449
11.4484
10.7864
11.7873
11.9713
12.0223
12.0903
12.1114
12.1066
12.0916
12.0748
12.0619
12.0565
12.055
-0.362057
-0.50273
-0.471677
-0.309829
-0.00785345
0.391807
0.879829
1.38276
1.83789
2.18343
2.33361
2.2063
2.58534
2.65834
2.69795
2.75202
2.825
2.9318
3.04671
3.16467
3.25914
3.40474
3.35734
2.70069
3.46282
3.5513
3.62812
3.7138
3.80678
3.8959
3.9751
4.0168
3.98991
3.96472
3.82114
2.86275
4.81693
4.92047
5.00008
5.06101
5.0998
5.11451
5.10021
5.02452
4.86623
4.67183
4.39799
3.16787
6.02932
6.1088
6.1624
6.19384
6.20194
6.18238
6.12421
6.01315
5.81969
5.54134
5.20979
3.77796
7.13788
7.20223
7.24297
7.26196
7.25819
7.22786
7.16079
7.04394
6.85334
6.5652
6.21928
4.79484
8.16466
8.21366
8.24393
8.25707
8.25279
8.22863
8.17838
8.09136
7.94881
7.72585
7.45038
6.16886
9.10949
9.14486
9.16798
9.18085
9.1844
9.17825
9.15975
9.12378
9.06256
8.95716
8.84181
7.89559
9.97427
9.9973
10.0147
10.0294
10.0443
10.0613
10.0814
10.1069
10.1449
10.196
10.327
9.90655
10.7576
10.77
10.7826
10.7984
10.8233
10.8627
10.9204
11.0059
11.1399
11.3538
11.8388
12.1361
11.4537
11.4588
11.4682
11.4845
11.5149
11.5694
11.6549
11.7866
11.9917
12.3392
13.2195
14.3952
12.0594
12.0621
12.0709
12.0873
12.1179
12.1753
12.2695
12.4196
12.6441
13.0337
14.0149
15.8844
-0.000123116
-0.109615
-0.210068
-0.277718
-0.311955
-0.296126
-0.254093
-0.195968
-0.0825404
0.109216
0.0760931
-0.14701
0.672404
0.483774
0.35666
0.28497
0.276449
0.354476
0.582139
0.812126
1.32422
2.00075
2.32427
2.4947
1.36319
1.07761
0.945112
0.925719
1.02383
1.25319
1.68679
2.1348
2.53474
2.91011
3.15122
3.33661
2.2487
1.97039
1.89555
1.97473
2.24596
2.67578
3.14698
3.57897
3.95391
4.26934
4.4961
4.67975
3.25461
3.0828
3.10356
3.3058
3.68553
4.14139
4.582
4.96804
5.30128
5.56791
5.76497
5.91785
4.32376
4.26744
4.39789
4.69945
5.11581
5.54786
5.93836
6.26996
6.54191
6.75726
6.92076
7.04618
5.39187
5.46675
5.69279
6.05533
6.47203
6.86719
7.20438
7.47942
7.69813
7.86808
7.99673
8.09395
6.45306
6.68225
6.9753
7.36331
7.75539
8.09978
8.37982
8.59953
8.76803
8.89488
8.98905
9.05888
7.51905
7.92403
8.25608
8.63647
8.98087
9.26182
9.47744
9.63772
9.7544
9.83823
9.89861
9.94236
8.61948
9.16083
9.51623
9.86773
10.1493
10.3522
10.4932
10.5885
10.6516
10.6931
10.7217
10.7419
9.76521
10.4665
10.7799
11.0217
11.2122
11.3247
11.387
11.4196
11.4343
11.4406
11.445
11.4484
10.7864
11.7875
11.9714
12.0224
12.0903
12.1114
12.1066
12.0916
12.0747
12.0619
12.0565
12.055
-0.362125
-0.502707
-0.471584
-0.309678
-0.00767188
0.392004
0.880018
1.38293
1.83804
2.18355
2.33371
2.20642
2.58543
2.65844
2.69807
2.75217
2.82516
2.93196
3.04687
3.16483
3.25928
3.40486
3.35745
2.70082
3.46302
3.55149
3.62829
3.71397
3.80695
3.89607
3.97527
4.01696
3.99007
3.96487
3.82128
2.86292
4.81712
4.92065
5.00025
5.06118
5.09996
5.11467
5.10037
5.02469
4.86639
4.672
4.39816
3.16807
6.02948
6.10896
6.16255
6.19399
6.2021
6.18254
6.12437
6.01332
5.81987
5.54153
5.20997
3.77818
7.13802
7.20237
7.24311
7.2621
7.25834
7.22801
7.16095
7.0441
6.85352
6.56538
6.21948
4.79508
8.16477
8.21378
8.24405
8.2572
8.25292
8.22877
8.17852
8.09152
7.94898
7.72604
7.45058
6.1691
9.10959
9.14496
9.16808
9.18096
9.18452
9.17837
9.15988
9.12392
9.06272
8.95734
8.84201
7.89583
9.97435
9.99739
10.0148
10.0295
10.0444
10.0614
10.0815
10.1071
10.145
10.1962
10.3272
9.90678
10.7577
10.7701
10.7826
10.7985
10.8234
10.8628
10.9205
11.006
11.14
11.354
11.839
12.1363
11.4538
11.4588
11.4683
11.4846
11.5149
11.5695
11.655
11.7867
11.9918
12.3393
13.2196
14.3954
12.0595
12.0621
12.071
12.0874
12.1179
12.1754
12.2695
12.4197
12.6441
13.0338
14.0151
15.8845
-0.000160114
-0.109646
-0.210093
-0.277734
-0.311967
-0.296141
-0.254103
-0.195999
-0.0825769
0.109154
0.0760648
-0.147012
0.672367
0.483743
0.356633
0.284943
0.276424
0.354394
0.581955
0.811996
1.32391
2.0007
2.32423
2.49464
1.36312
1.07752
0.944992
0.925561
1.02362
1.25292
1.68643
2.13448
2.53441
2.90973
3.15098
3.33642
2.24856
1.97016
1.89524
1.97433
2.24546
2.6753
3.14658
3.57868
3.95372
4.26921
4.49595
4.67961
3.25442
3.08248
3.10313
3.30527
3.685
4.14095
4.58166
4.9678
5.30112
5.5678
5.76485
5.91775
4.3236
4.26715
4.39749
4.69899
5.1154
5.54756
5.93815
6.26981
6.54179
6.75717
6.92068
7.0461
5.39177
5.4665
5.69248
6.055
6.47177
6.86701
7.20427
7.47935
7.69807
7.86803
7.99668
8.0939
6.45303
6.68207
6.97508
7.3631
7.75524
8.09969
8.37977
8.59951
8.76801
8.89486
8.98902
9.05884
7.51904
7.92391
8.25593
8.63634
8.98078
9.26178
9.47743
9.63772
9.7544
9.83823
9.8986
9.94234
8.61946
9.16074
9.51613
9.86766
10.1493
10.3522
10.4932
10.5885
10.6516
10.6931
10.7217
10.7419
9.76518
10.4665
10.7798
11.0217
11.2122
11.3247
11.3871
11.4196
11.4344
11.4406
11.4449
11.4484
10.7864
11.7874
11.9713
12.0224
12.0904
12.1114
12.1066
12.0916
12.0748
12.0619
12.0565
12.055
-0.362169
-0.502809
-0.471722
-0.309843
-0.00784048
0.391842
0.879878
1.38282
1.83796
2.18351
2.33369
2.20638
2.58535
2.65835
2.69797
2.75206
2.82504
2.93185
3.04677
3.16474
3.25921
3.40482
3.35741
2.70076
3.46288
3.55135
3.62817
3.71385
3.80683
3.89596
3.97517
4.01687
3.98998
3.96479
3.82121
2.86282
4.81699
4.92053
5.00014
5.06107
5.09986
5.11457
5.10027
5.02459
4.8663
4.6719
4.39806
3.16793
6.02938
6.10886
6.16245
6.19389
6.202
6.18244
6.12427
6.01322
5.81976
5.54141
5.20986
3.77803
7.13794
7.20229
7.24302
7.26202
7.25825
7.22792
7.16085
7.04401
6.85341
6.56527
6.21936
4.79493
8.16472
8.21371
8.24398
8.25712
8.25284
8.22868
8.17844
8.09143
7.94888
7.72593
7.45046
6.16896
9.10954
9.14491
9.16802
9.18089
9.18445
9.1783
9.15981
9.12384
9.06263
8.95724
8.84191
7.89571
9.97431
9.99734
10.0148
10.0295
10.0443
10.0613
10.0814
10.107
10.145
10.1961
10.3271
9.90668
10.7577
10.77
10.7826
10.7985
10.8233
10.8628
10.9205
11.0059
11.1399
11.3539
11.8389
12.1363
11.4538
11.4588
11.4682
11.4846
11.5149
11.5694
11.655
11.7866
11.9917
12.3393
13.2196
14.3953
12.0595
12.0621
12.0709
12.0873
12.1179
12.1753
12.2695
12.4196
12.6441
13.0338
14.015
15.8845
12.8459
12.9944
12.8789
12.7611
12.7081
12.6637
12.6207
12.5839
12.5596
12.5489
12.5527
12.5614
13.2332
13.0889
13.0733
13.023
12.9917
12.9582
12.925
12.9015
12.8968
12.911
12.9436
12.9788
13.4079
13.3081
13.2684
13.2057
13.1588
13.1213
13.0978
13.0967
13.1243
13.1787
13.2569
13.3346
13.5426
13.4541
13.3789
13.2963
13.2282
13.1811
13.1654
13.1919
13.2667
13.3865
13.5409
13.6987
12.5775
12.5833
12.5949
12.6104
12.6362
12.6846
12.7675
12.9041
13.0876
13.3569
13.6774
14.6235
13.0202
13.0324
13.0494
13.0608
13.0747
13.1032
13.1592
13.2629
13.3944
13.5845
13.6586
13.9551
13.4118
13.4263
13.4494
13.4497
13.4429
13.4403
13.4544
13.5067
13.5756
13.7039
13.7068
13.7982
13.8253
13.8213
13.8457
13.8216
13.7785
13.7246
13.6718
13.644
13.6297
13.6862
13.6609
13.7257
12.8459
12.9944
12.8789
12.7611
12.7081
12.6637
12.6207
12.5839
12.5596
12.5489
12.5527
12.5614
13.2332
13.0888
13.0733
13.023
12.9917
12.9582
12.925
12.9015
12.8968
12.911
12.9436
12.9787
13.4079
13.3081
13.2684
13.2058
13.1588
13.1213
13.0978
13.0967
13.1243
13.1787
13.2568
13.3346
13.5426
13.4542
13.3789
13.2964
13.2282
13.1811
13.1654
13.1919
13.2667
13.3865
13.5409
13.6986
12.5775
12.5833
12.5948
12.6104
12.6361
12.6846
12.7675
12.9041
13.0876
13.3569
13.6774
14.6235
13.0201
13.0324
13.0493
13.0607
13.0746
13.1032
13.1592
13.2628
13.3944
13.5844
13.6585
13.9551
13.4117
13.4262
13.4493
13.4496
13.4428
13.4403
13.4544
13.5067
13.5756
13.7039
13.7068
13.7981
13.8253
13.8213
13.8456
13.8216
13.7784
13.7245
13.6718
13.644
13.6297
13.6862
13.6608
13.7257
12.8459
12.9944
12.8789
12.7611
12.7081
12.6636
12.6207
12.5838
12.5596
12.5489
12.5527
12.5614
13.2332
13.0889
13.0733
13.023
12.9916
12.9582
12.9249
12.9014
12.8968
12.9109
12.9436
12.9787
13.4078
13.3081
13.2684
13.2057
13.1587
13.1212
13.0977
13.0966
13.1242
13.1787
13.2568
13.3345
13.5425
13.4541
13.3789
13.2963
13.2282
13.1811
13.1654
13.1918
13.2666
13.3864
13.5408
13.6986
12.5775
12.5833
12.5949
12.6105
12.6362
12.6847
12.7676
12.9042
13.0877
13.357
13.6775
14.6236
13.0202
13.0324
13.0494
13.0608
13.0747
13.1032
13.1593
13.2629
13.3944
13.5845
13.6586
13.9552
13.4118
13.4262
13.4494
13.4497
13.4429
13.4404
13.4544
13.5067
13.5756
13.7039
13.7068
13.7982
13.8253
13.8213
13.8456
13.8216
13.7785
13.7246
13.6718
13.6441
13.6297
13.6862
13.6609
13.7258
12.8459
12.9944
12.8789
12.7611
12.7081
12.6637
12.6208
12.5839
12.5596
12.5489
12.5527
12.5614
13.2332
13.0889
13.0734
13.0231
12.9917
12.9583
12.925
12.9015
12.8969
12.911
12.9436
12.9788
13.4079
13.3082
13.2685
13.2058
13.1589
13.1214
13.0979
13.0968
13.1244
13.1788
13.2569
13.3346
13.5426
13.4542
13.379
13.2964
13.2283
13.1812
13.1655
13.192
13.2668
13.3866
13.5409
13.6987
12.5775
12.5833
12.5948
12.6104
12.6361
12.6846
12.7675
12.9041
13.0876
13.3569
13.6775
14.6236
13.0201
13.0324
13.0493
13.0607
13.0746
13.1032
13.1592
13.2629
13.3944
13.5845
13.6586
13.9552
13.4118
13.4262
13.4493
13.4496
13.4428
13.4403
13.4544
13.5067
13.5756
13.7039
13.7068
13.7982
13.8253
13.8213
13.8456
13.8215
13.7784
13.7245
13.6718
13.644
13.6297
13.6862
13.6609
13.7257
13.6643
13.596
13.517
13.4361
13.3634
13.309
13.2847
13.3021
13.3677
13.4802
13.6294
13.7998
13.7794
13.719
13.6514
13.5838
13.5212
13.47
13.4395
13.439
13.4748
13.5475
13.6512
13.7784
13.8684
13.8132
13.7527
13.692
13.6326
13.5796
13.5407
13.5251
13.5412
13.5922
13.6777
13.7915
13.935
13.8829
13.8258
13.7668
13.7055
13.6461
13.5961
13.5658
13.5671
13.6083
13.6914
13.7549
13.9948
14.0106
14.0479
14.0267
13.9857
13.9264
13.8607
13.8042
13.7555
13.7552
13.709
13.7406
14.0191
14.0296
14.0795
14.0752
14.0585
14.0272
13.9914
13.9589
13.927
13.9148
13.8682
13.854
14.1114
14.075
14.1266
14.13
14.1245
14.1065
14.0839
14.0604
14.0335
14.0128
13.9674
13.9358
14.3252
14.1618
14.1835
14.1842
14.1809
14.1684
14.1513
14.1307
14.1044
14.0776
14.0327
13.9945
13.6642
13.596
13.5171
13.4361
13.3634
13.309
13.2848
13.3021
13.3677
13.4802
13.6294
13.7998
13.7794
13.719
13.6514
13.5839
13.5212
13.47
13.4395
13.439
13.4748
13.5475
13.6512
13.7784
13.8684
13.8132
13.7527
13.692
13.6327
13.5796
13.5407
13.5251
13.5412
13.5922
13.6777
13.7915
13.935
13.8829
13.8258
13.7668
13.7055
13.6461
13.5961
13.5658
13.5671
13.6083
13.6913
13.7548
13.9947
14.0106
14.0478
14.0266
13.9857
13.9263
13.8606
13.8041
13.7555
13.7552
13.709
13.7406
14.0191
14.0295
14.0794
14.0751
14.0585
14.0272
13.9913
13.9589
13.9269
13.9148
13.8682
13.8539
14.1113
14.075
14.1265
14.13
14.1245
14.1064
14.0838
14.0604
14.0334
14.0128
13.9673
13.9357
14.3252
14.1618
14.1834
14.1842
14.1809
14.1683
14.1513
14.1307
14.1044
14.0776
14.0327
13.9945
13.6642
13.596
13.517
13.436
13.3634
13.3089
13.2847
13.302
13.3676
13.4802
13.6293
13.7998
13.7794
13.719
13.6514
13.5838
13.5211
13.4699
13.4395
13.4389
13.4747
13.5474
13.6512
13.7784
13.8684
13.8132
13.7527
13.692
13.6326
13.5795
13.5406
13.5251
13.5411
13.5922
13.6776
13.7915
13.935
13.8829
13.8257
13.7667
13.7054
13.6461
13.596
13.5657
13.5671
13.6082
13.6913
13.7548
13.9947
14.0106
14.0479
14.0267
13.9857
13.9264
13.8607
13.8042
13.7556
13.7553
13.709
13.7407
14.0191
14.0296
14.0795
14.0752
14.0586
14.0273
13.9914
13.959
13.927
13.9148
13.8683
13.854
14.1114
14.075
14.1266
14.13
14.1245
14.1065
14.0839
14.0605
14.0335
14.0129
13.9674
13.9358
14.3253
14.1618
14.1835
14.1843
14.181
14.1684
14.1514
14.1308
14.1045
14.0777
14.0328
13.9946
13.6643
13.5961
13.5171
13.4362
13.3635
13.3091
13.2849
13.3022
13.3678
13.4803
13.6294
13.7999
13.7795
13.7191
13.6515
13.5839
13.5213
13.4701
13.4396
13.4391
13.4749
13.5476
13.6513
13.7784
13.8685
13.8133
13.7528
13.6921
13.6327
13.5797
13.5408
13.5252
13.5413
13.5923
13.6777
13.7916
13.9351
13.883
13.8259
13.7668
13.7056
13.6462
13.5962
13.5658
13.5672
13.6084
13.6914
13.7549
13.9947
14.0106
14.0478
14.0266
13.9856
13.9263
13.8606
13.8041
13.7555
13.7552
13.709
13.7406
14.0191
14.0295
14.0794
14.0751
14.0585
14.0272
13.9913
13.9589
13.9269
13.9148
13.8682
13.854
14.1114
14.075
14.1265
14.13
14.1245
14.1064
14.0838
14.0604
14.0334
14.0128
13.9673
13.9358
14.3252
14.1618
14.1834
14.1842
14.1809
14.1683
14.1513
14.1307
14.1044
14.0776
14.0327
13.9945
13.9828
13.9315
13.8745
13.8133
13.7464
13.6775
13.6136
13.5658
13.5466
13.5581
13.6007
13.4965
14.0151
13.9625
13.9031
13.837
13.7623
13.6822
13.6039
13.5389
13.5005
13.4878
13.5278
13.5123
14.0351
13.98
13.9167
13.8444
13.7615
13.671
13.5807
13.504
13.4571
13.4448
13.482
13.5037
14.0463
13.9882
13.9206
13.8422
13.7521
13.6536
13.5557
13.4744
13.4283
13.424
13.4629
13.502
14.0514
13.9906
13.9191
13.8356
13.7401
13.6368
13.5358
13.4553
13.4143
13.418
13.463
13.5116
14.0531
13.99
13.9155
13.8284
13.7297
13.6242
13.5234
13.447
13.4125
13.4242
13.4774
13.5304
14.0533
13.9887
13.9123
13.8231
13.7229
13.6172
13.5186
13.4475
13.4194
13.4385
13.499
13.5545
14.0536
13.9883
13.9112
13.8212
13.7208
13.6162
13.5204
13.4545
13.4318
13.4573
13.524
13.5802
14.0556
13.9903
13.9136
13.8241
13.7245
13.621
13.5276
13.4658
13.4464
13.4766
13.5473
13.6041
14.061
13.9974
13.9224
13.8342
13.7358
13.633
13.5398
13.4799
13.4598
13.492
13.5647
13.6234
14.0717
14.0119
13.9403
13.8546
13.7575
13.6542
13.5586
13.4966
13.4708
13.5022
13.5778
13.6341
14.0821
14.0266
13.9593
13.8778
13.7838
13.6815
13.5867
13.5126
13.485
13.5138
13.5861
13.6364
14.7154
14.3427
14.2462
14.2323
14.2257
14.2149
14.2001
14.1805
14.154
14.1235
14.0792
14.0377
14.6891
14.4183
14.2914
14.2679
14.2598
14.2491
14.235
14.2151
14.188
14.1552
14.1115
14.068
14.6213
14.4119
14.3196
14.2924
14.2847
14.2741
14.2597
14.2388
14.2106
14.1762
14.1328
14.0878
14.552
14.3899
14.3359
14.3097
14.3026
14.2922
14.277
14.2548
14.2252
14.1894
14.1458
14.0995
14.4963
14.3729
14.3457
14.3224
14.3156
14.3054
14.289
14.2652
14.2342
14.197
14.1532
14.1057
14.4609
14.3645
14.3526
14.3324
14.3258
14.3148
14.2971
14.2719
14.2394
14.2011
14.1569
14.1085
14.4464
14.3662
14.3594
14.3412
14.3339
14.3214
14.3025
14.2758
14.2422
14.203
14.1586
14.1095
14.4475
14.3789
14.3671
14.3495
14.34
14.3258
14.3057
14.2779
14.2433
14.2037
14.1594
14.1102
14.4591
14.4005
14.3762
14.3571
14.3438
14.3276
14.3067
14.2784
14.2435
14.2039
14.1603
14.1117
14.4753
14.4264
14.3869
14.3623
14.3435
14.3254
14.3044
14.2767
14.2426
14.2042
14.1622
14.1154
14.4953
14.4486
14.3992
14.365
14.3396
14.3193
14.2985
14.2722
14.2402
14.2047
14.1658
14.1224
14.516
14.4668
14.409
14.3688
14.3386
14.316
14.2941
14.268
14.238
14.2052
14.1692
14.129
13.9828
13.9315
13.8745
13.8133
13.7464
13.6775
13.6136
13.5658
13.5466
13.5581
13.6007
13.4965
14.0151
13.9625
13.9031
13.837
13.7623
13.6822
13.6039
13.5389
13.5004
13.4878
13.5278
13.5123
14.0351
13.98
13.9168
13.8444
13.7615
13.671
13.5807
13.504
13.4571
13.4448
13.482
13.5037
14.0463
13.9882
13.9206
13.8422
13.7521
13.6536
13.5557
13.4744
13.4283
13.4239
13.4628
13.502
14.0514
13.9906
13.9191
13.8356
13.7402
13.6368
13.5358
13.4553
13.4143
13.418
13.4629
13.5116
14.0531
13.99
13.9155
13.8284
13.7297
13.6242
13.5234
13.447
13.4124
13.4242
13.4774
13.5303
14.0533
13.9887
13.9123
13.8231
13.7229
13.6172
13.5186
13.4475
13.4194
13.4384
13.499
13.5545
14.0537
13.9883
13.9112
13.8212
13.7209
13.6162
13.5204
13.4545
13.4318
13.4572
13.5239
13.5802
14.0556
13.9904
13.9136
13.8241
13.7245
13.621
13.5276
13.4658
13.4464
13.4766
13.5472
13.6041
14.061
13.9975
13.9224
13.8342
13.7358
13.633
13.5398
13.4799
13.4598
13.4919
13.5646
13.6234
14.0717
14.0119
13.9403
13.8546
13.7575
13.6542
13.5586
13.4965
13.4708
13.5022
13.5778
13.6341
14.0822
14.0266
13.9594
13.8778
13.7838
13.6815
13.5867
13.5126
13.4849
13.5138
13.5861
13.6364
14.7154
14.3427
14.2462
14.2323
14.2257
14.2148
14.2001
14.1804
14.154
14.1234
14.0791
14.0377
14.6891
14.4183
14.2913
14.2679
14.2598
14.2491
14.235
14.215
14.1879
14.1552
14.1115
14.068
14.6213
14.4118
14.3195
14.2924
14.2847
14.274
14.2597
14.2387
14.2106
14.1762
14.1327
14.0877
14.5519
14.3898
14.3358
14.3096
14.3025
14.2922
14.277
14.2547
14.2252
14.1893
14.1458
14.0995
14.4962
14.3729
14.3456
14.3223
14.3156
14.3053
14.2889
14.2652
14.2342
14.197
14.1532
14.1057
14.4609
14.3644
14.3526
14.3324
14.3258
14.3147
14.2971
14.2718
14.2394
14.2011
14.1569
14.1084
14.4463
14.3661
14.3593
14.3411
14.3338
14.3214
14.3024
14.2758
14.2421
14.2029
14.1585
14.1094
14.4475
14.3788
14.3671
14.3494
14.34
14.3258
14.3056
14.2779
14.2433
14.2036
14.1593
14.1101
14.459
14.4005
14.3762
14.357
14.3437
14.3276
14.3066
14.2784
14.2434
14.2039
14.1602
14.1116
14.4752
14.4264
14.3869
14.3623
14.3435
14.3254
14.3044
14.2767
14.2425
14.2042
14.1622
14.1153
14.4953
14.4485
14.3992
14.365
14.3395
14.3192
14.2984
14.2721
14.2402
14.2046
14.1658
14.1223
14.516
14.4668
14.4089
14.3687
14.3386
14.316
14.2941
14.268
14.238
14.2052
14.1692
14.1289
13.9828
13.9314
13.8745
13.8133
13.7464
13.6774
13.6136
13.5658
13.5466
13.558
13.6006
13.4964
14.015
13.9624
13.9031
13.8369
13.7622
13.6822
13.6038
13.5389
13.5004
13.4877
13.5277
13.5122
14.0351
13.98
13.9167
13.8444
13.7614
13.671
13.5806
13.5039
13.4571
13.4447
13.4819
13.5036
14.0462
13.9882
13.9206
13.8422
13.752
13.6535
13.5556
13.4743
13.4282
13.4239
13.4627
13.5019
14.0514
13.9906
13.919
13.8356
13.7401
13.6367
13.5357
13.4552
13.4142
13.4179
13.4629
13.5116
14.0531
13.99
13.9154
13.8284
13.7296
13.6241
13.5233
13.4469
13.4124
13.4241
13.4773
13.5303
14.0533
13.9886
13.9122
13.8231
13.7228
13.6172
13.5185
13.4474
13.4193
13.4384
13.4989
13.5544
14.0536
13.9882
13.9111
13.8212
13.7208
13.6161
13.5203
13.4544
13.4317
13.4572
13.5239
13.5801
14.0556
13.9903
13.9136
13.824
13.7244
13.621
13.5275
13.4657
13.4463
13.4765
13.5472
13.604
14.061
13.9974
13.9224
13.8342
13.7358
13.6329
13.5398
13.4798
13.4597
13.4919
13.5646
13.6233
14.0717
14.0119
13.9402
13.8546
13.7575
13.6541
13.5585
13.4965
13.4707
13.5021
13.5777
13.634
14.0821
14.0266
13.9593
13.8778
13.7838
13.6814
13.5867
13.5126
13.4849
13.5137
13.586
13.6363
14.7156
14.3428
14.2463
14.2324
14.2258
14.2149
14.2002
14.1805
14.1541
14.1235
14.0792
14.0378
14.6893
14.4184
14.2914
14.268
14.2599
14.2492
14.2351
14.2151
14.188
14.1553
14.1115
14.068
14.6215
14.412
14.3196
14.2924
14.2848
14.2741
14.2598
14.2388
14.2107
14.1763
14.1328
14.0878
14.5521
14.3899
14.3359
14.3097
14.3026
14.2923
14.2771
14.2548
14.2253
14.1894
14.1459
14.0996
14.4964
14.373
14.3457
14.3224
14.3157
14.3054
14.289
14.2653
14.2343
14.1971
14.1532
14.1058
14.461
14.3646
14.3527
14.3325
14.3259
14.3148
14.2972
14.2719
14.2395
14.2012
14.1569
14.1085
14.4465
14.3662
14.3594
14.3412
14.3339
14.3215
14.3025
14.2759
14.2422
14.203
14.1586
14.1095
14.4476
14.379
14.3672
14.3495
14.3401
14.3259
14.3057
14.278
14.2434
14.2037
14.1594
14.1102
14.4592
14.4006
14.3763
14.3572
14.3438
14.3277
14.3067
14.2784
14.2435
14.2039
14.1603
14.1117
14.4754
14.4265
14.387
14.3624
14.3436
14.3255
14.3045
14.2768
14.2426
14.2043
14.1623
14.1154
14.4954
14.4487
14.3993
14.3651
14.3397
14.3193
14.2985
14.2722
14.2402
14.2047
14.1659
14.1224
14.5161
14.467
14.4091
14.3688
14.3387
14.3161
14.2942
14.2681
14.2381
14.2053
14.1693
14.129
13.9829
13.9315
13.8746
13.8134
13.7465
13.6775
13.6137
13.5659
13.5467
13.5581
13.6007
13.4966
14.0151
13.9625
13.9032
13.837
13.7623
13.6823
13.6039
13.539
13.5005
13.4879
13.5278
13.5124
14.0352
13.9801
13.9168
13.8445
13.7615
13.6711
13.5807
13.5041
13.4572
13.4448
13.482
13.5038
14.0463
13.9883
13.9206
13.8423
13.7521
13.6536
13.5558
13.4744
13.4284
13.424
13.4629
13.5021
14.0515
13.9907
13.9191
13.8357
13.7402
13.6368
13.5358
13.4554
13.4143
13.418
13.463
13.5117
14.0531
13.9901
13.9155
13.8285
13.7297
13.6242
13.5234
13.447
13.4125
13.4242
13.4774
13.5304
14.0533
13.9887
13.9123
13.8231
13.7229
13.6173
13.5187
13.4475
13.4195
13.4385
13.4991
13.5546
14.0537
13.9883
13.9112
13.8213
13.7209
13.6162
13.5204
13.4545
13.4318
13.4573
13.524
13.5802
14.0556
13.9904
13.9137
13.8241
13.7245
13.6211
13.5276
13.4658
13.4464
13.4767
13.5473
13.6041
14.0611
13.9975
13.9225
13.8342
13.7359
13.633
13.5399
13.4799
13.4599
13.492
13.5647
13.6234
14.0718
14.0119
13.9403
13.8546
13.7576
13.6542
13.5586
13.4966
13.4709
13.5022
13.5779
13.6342
14.0822
14.0266
13.9594
13.8779
13.7839
13.6815
13.5868
13.5127
13.485
13.5138
13.5861
13.6364
14.7155
14.3427
14.2462
14.2323
14.2257
14.2148
14.2001
14.1804
14.154
14.1234
14.0792
14.0377
14.6891
14.4183
14.2914
14.2679
14.2598
14.2491
14.235
14.215
14.1879
14.1552
14.1115
14.068
14.6213
14.4118
14.3195
14.2924
14.2847
14.274
14.2597
14.2387
14.2106
14.1762
14.1327
14.0877
14.5519
14.3898
14.3358
14.3096
14.3025
14.2922
14.277
14.2547
14.2252
14.1893
14.1458
14.0995
14.4963
14.3729
14.3456
14.3223
14.3156
14.3053
14.2889
14.2652
14.2342
14.197
14.1532
14.1057
14.4609
14.3644
14.3526
14.3324
14.3258
14.3147
14.2971
14.2718
14.2394
14.2011
14.1569
14.1084
14.4464
14.3661
14.3593
14.3411
14.3338
14.3214
14.3024
14.2758
14.2421
14.2029
14.1585
14.1094
14.4475
14.3789
14.3671
14.3494
14.34
14.3258
14.3056
14.2779
14.2433
14.2036
14.1593
14.1101
14.4591
14.4005
14.3762
14.357
14.3437
14.3276
14.3066
14.2784
14.2434
14.2039
14.1602
14.1116
14.4752
14.4264
14.3869
14.3623
14.3435
14.3254
14.3044
14.2767
14.2425
14.2042
14.1622
14.1153
14.4953
14.4486
14.3992
14.365
14.3396
14.3192
14.2984
14.2721
14.2402
14.2047
14.1658
14.1223
14.516
14.4668
14.409
14.3687
14.3386
14.316
14.2941
14.268
14.238
14.2052
14.1692
14.1289
)
;

boundaryField
{
    rotor
    {
        type            zeroGradient;
    }
    stator
    {
        type            zeroGradient;
    }
    front
    {
        type            empty;
    }
    back
    {
        type            empty;
    }
}


// ************************************************************************* //
