/*--------------------------------*- C++ -*----------------------------------*\
| =========                 |                                                 |
| \\      /  F ield         | OpenFOAM: The Open Source CFD Toolbox           |
|  \\    /   O peration     | Version:  4.0                                   |
|   \\  /    A nd           | Web:      www.OpenFOAM.org                      |
|    \\/     M anipulation  |                                                 |
\*---------------------------------------------------------------------------*/
FoamFile
{
    version     2.0;
    format      ascii;
    class       surfaceScalarField;
    location    "500";
    object      phi;
}
// * * * * * * * * * * * * * * * * * * * * * * * * * * * * * * * * * * * * * //

dimensions      [0 3 -1 0 0 0 0];

internalField   nonuniform List<scalar> 
5952
(
5.11291e-06
-5.10947e-06
8.71737e-06
-3.60434e-06
1.14337e-05
-2.71626e-06
1.2934e-05
-1.50013e-06
1.31084e-05
-1.74354e-07
1.16749e-05
1.43368e-06
7.5903e-06
4.08445e-06
1.51024e-06
6.08012e-06
-1.09182e-05
1.24283e-05
-2.54154e-05
1.44972e-05
-3.65187e-05
1.11033e-05
8.58439e-06
-4.51031e-05
1.57325e-06
-6.68247e-06
3.95668e-06
-5.98768e-06
4.26089e-06
-3.02028e-06
2.68581e-06
7.50149e-08
-1.0511e-06
3.56275e-06
-8.35773e-06
8.74036e-06
-1.96248e-05
1.53516e-05
-3.18321e-05
1.82874e-05
-3.81171e-05
1.87133e-05
-4.06189e-05
1.6999e-05
-4.29884e-05
1.34728e-05
1.05781e-05
-4.49821e-05
1.36637e-06
-8.04871e-06
1.20052e-06
-5.82171e-06
-8.40679e-07
-9.78976e-07
-5.63577e-06
4.87021e-06
-1.40039e-05
1.19309e-05
-2.36106e-05
1.83471e-05
-2.96921e-05
2.14332e-05
-3.29007e-05
2.1496e-05
-3.42451e-05
2.00577e-05
-3.47081e-05
1.74619e-05
-3.54062e-05
1.4171e-05
1.12276e-05
-3.60557e-05
-1.58622e-06
-6.4624e-06
-4.39355e-06
-3.01429e-06
-8.93729e-06
3.56485e-06
-1.53316e-05
1.12646e-05
-2.15497e-05
1.81489e-05
-2.54194e-05
2.22169e-05
-2.70014e-05
2.30152e-05
-2.74156e-05
2.19102e-05
-2.73512e-05
1.99932e-05
-2.7183e-05
1.72937e-05
-2.72267e-05
1.42147e-05
1.12699e-05
-2.72691e-05
-3.57684e-06
-2.8854e-06
-8.4244e-06
1.83337e-06
-1.34923e-05
8.63285e-06
-1.79386e-05
1.5711e-05
-2.06191e-05
2.08295e-05
-2.12729e-05
2.28707e-05
-2.08831e-05
2.26253e-05
-2.01553e-05
2.11825e-05
-1.92488e-05
1.90867e-05
-1.8495e-05
1.65399e-05
-1.80215e-05
1.37412e-05
1.09353e-05
-1.76868e-05
-4.859e-06
1.97379e-06
-9.853e-06
6.82755e-06
-1.37737e-05
1.25537e-05
-1.58949e-05
1.78324e-05
-1.61122e-05
2.10469e-05
-1.51261e-05
2.18847e-05
-1.3702e-05
2.12012e-05
-1.22268e-05
1.97073e-05
-1.08793e-05
1.77392e-05
-9.78654e-06
1.54471e-05
-8.99079e-06
1.29454e-05
1.03597e-05
-8.41521e-06
-5.3196e-06
7.29376e-06
-9.54192e-06
1.10501e-05
-1.18828e-05
1.48947e-05
-1.20802e-05
1.803e-05
-1.0689e-05
1.96557e-05
-8.61983e-06
1.98156e-05
-6.44718e-06
1.90286e-05
-4.42913e-06
1.76893e-05
-2.68458e-06
1.59947e-05
-1.26983e-06
1.40324e-05
-1.8911e-07
1.18647e-05
9.55908e-06
6.11507e-07
-5.33225e-06
1.26261e-05
-8.44539e-06
1.41634e-05
-9.12317e-06
1.55726e-05
-7.73587e-06
1.66428e-05
-5.16686e-06
1.70868e-05
-2.2301e-06
1.68789e-05
6.18121e-07
1.61804e-05
3.16931e-06
1.51381e-05
5.33879e-06
1.38252e-05
7.10364e-06
1.22675e-05
8.48248e-06
1.04859e-05
8.51589e-06
9.52567e-06
-4.71678e-06
1.73431e-05
-6.54398e-06
1.59906e-05
-5.47899e-06
1.45077e-05
-2.69431e-06
1.38582e-05
9.0663e-07
1.34859e-05
4.62454e-06
1.3161e-05
8.08078e-06
1.27242e-05
1.11113e-05
1.21076e-05
1.36626e-05
1.12739e-05
1.57378e-05
1.01924e-05
1.73763e-05
8.84733e-06
7.25794e-06
1.86343e-05
-4.0661e-06
2.14091e-05
-3.11757e-06
1.50421e-05
4.44234e-07
1.09458e-05
4.72328e-06
9.57912e-06
9.20508e-06
9.00413e-06
1.34508e-05
8.91532e-06
1.72264e-05
8.9486e-06
2.04539e-05
8.8801e-06
2.31334e-05
8.59447e-06
2.53009e-05
8.02487e-06
2.70191e-05
7.12915e-06
5.92577e-06
2.83512e-05
6.27181e-07
2.07818e-05
6.13841e-06
9.53078e-06
1.19939e-05
5.09031e-06
1.73194e-05
4.25358e-06
2.19974e-05
4.32616e-06
2.60179e-05
4.89475e-06
2.94201e-05
5.54645e-06
3.22496e-05
6.05064e-06
3.45619e-05
6.28212e-06
3.64165e-05
6.17028e-06
3.78892e-05
5.65646e-06
4.77409e-06
3.90409e-05
2.0473e-05
3.08644e-07
2.87835e-05
1.22023e-06
3.38456e-05
2.81352e-08
3.76957e-05
4.03456e-07
4.06598e-05
1.36201e-06
4.30918e-05
2.4627e-06
4.51312e-05
3.50707e-06
4.68196e-05
4.36224e-06
4.8188e-05
4.91373e-06
4.92695e-05
5.08875e-06
5.01291e-05
4.79688e-06
5.0811e-05
4.09223e-06
-5.11381e-05
6.03497e-06
-5.51944e-05
4.0562e-06
-5.7087e-05
1.89261e-06
-5.7192e-05
1.04971e-07
-5.54713e-05
-1.72069e-06
-5.20329e-05
-3.43838e-06
-4.66124e-05
-5.42052e-06
-3.92473e-05
-7.3651e-06
-2.97423e-05
-9.50498e-06
-1.83366e-05
-1.14057e-05
-6.9771e-06
-1.13595e-05
-6.97711e-06
-4.666e-05
7.71284e-06
-4.74983e-05
4.8945e-06
-4.78251e-05
2.21941e-06
-4.74305e-05
-2.89686e-07
-4.63581e-05
-2.79309e-06
-4.43294e-05
-5.46702e-06
-4.13385e-05
-8.41143e-06
-3.70058e-05
-1.16978e-05
-3.11685e-05
-1.53423e-05
-2.35176e-05
-1.90566e-05
-1.3108e-05
-2.17692e-05
-2.00851e-05
-3.66203e-05
8.27744e-06
-3.70808e-05
5.35499e-06
-3.73225e-05
2.46109e-06
-3.7153e-05
-4.59179e-07
-3.64178e-05
-3.52831e-06
-3.50466e-05
-6.83826e-06
-3.29348e-05
-1.05233e-05
-2.99508e-05
-1.46818e-05
-2.60077e-05
-1.92854e-05
-2.06259e-05
-2.44384e-05
-1.27865e-05
-2.96086e-05
-3.28716e-05
-2.72988e-05
8.30715e-06
-2.72739e-05
5.3301e-06
-2.71277e-05
2.31483e-06
-2.6786e-05
-8.00889e-07
-2.61872e-05
-4.12707e-06
-2.52569e-05
-7.76855e-06
-2.39015e-05
-1.18787e-05
-2.19919e-05
-1.65913e-05
-1.93119e-05
-2.19655e-05
-1.53694e-05
-2.83809e-05
-9.40004e-06
-3.5578e-05
-4.22716e-05
-1.74594e-05
8.07966e-06
-1.72941e-05
5.16486e-06
-1.71366e-05
2.15729e-06
-1.69298e-05
-1.00764e-06
-1.66292e-05
-4.42776e-06
-1.6183e-05
-8.21467e-06
-1.55321e-05
-1.25296e-05
-1.46116e-05
-1.75119e-05
-1.32164e-05
-2.33607e-05
-1.11231e-05
-3.04742e-05
-7.44014e-06
-3.9261e-05
-4.97118e-05
-8.01966e-06
7.68412e-06
-7.76316e-06
4.90836e-06
-7.60514e-06
1.99927e-06
-7.51056e-06
-1.10223e-06
-7.45491e-06
-4.48341e-06
-7.4153e-06
-8.2543e-06
-7.38588e-06
-1.25591e-05
-7.32691e-06
-1.75709e-05
-7.12198e-06
-2.35656e-05
-6.58471e-06
-3.10115e-05
-4.87611e-06
-4.09696e-05
-5.45879e-05
1.17439e-06
7.12124e-06
1.53533e-06
4.54741e-06
1.7222e-06
1.81238e-06
1.75095e-06
-1.13099e-06
1.62299e-06
-4.35547e-06
1.3266e-06
-7.95793e-06
8.34876e-07
-1.20674e-05
1.31493e-07
-1.68675e-05
-7.57516e-07
-2.26766e-05
-1.70807e-06
-3.00609e-05
-2.24812e-06
-4.04296e-05
-5.6836e-05
1.02804e-05
6.36648e-06
1.07803e-05
4.04752e-06
1.10455e-05
1.54718e-06
1.10783e-05
-1.16374e-06
1.08611e-05
-4.13836e-06
1.03532e-05
-7.45001e-06
9.4814e-06
-1.11956e-05
8.15319e-06
-1.55393e-05
6.27573e-06
-2.07992e-05
3.83468e-06
-2.76199e-05
1.22155e-06
-3.78165e-05
-5.56145e-05
1.95689e-05
5.43188e-06
2.02152e-05
3.40119e-06
2.05918e-05
1.17059e-06
2.06922e-05
-1.26418e-06
2.0485e-05
-3.93116e-06
1.99052e-05
-6.8703e-06
1.88308e-05
-1.01212e-05
1.70832e-05
-1.37917e-05
1.44165e-05
-1.81325e-05
1.05772e-05
-2.37807e-05
5.66855e-06
-3.2908e-05
-4.9946e-05
2.93677e-05
4.41546e-06
3.01029e-05
2.66593e-06
3.05781e-05
6.95383e-07
3.07827e-05
-1.46877e-06
3.06741e-05
-3.82256e-06
3.01684e-05
-6.36459e-06
2.9101e-05
-9.05381e-06
2.72154e-05
-1.19062e-05
2.41005e-05
-1.50176e-05
1.9251e-05
-1.89312e-05
1.18535e-05
-2.55104e-05
-3.80926e-05
3.99562e-05
3.50013e-06
4.06588e-05
1.96332e-06
4.11732e-05
1.81035e-07
4.14866e-05
-1.78217e-06
4.15469e-05
-3.88293e-06
4.12566e-05
-6.07422e-06
4.04237e-05
-8.22092e-06
3.87481e-05
-1.02307e-05
3.5683e-05
-1.19525e-05
3.04887e-05
-1.37369e-05
2.06387e-05
-1.56605e-05
-1.74539e-05
5.1423e-05
2.88813e-06
5.19621e-05
1.42423e-06
5.24544e-05
-3.11237e-07
5.28783e-05
-2.20607e-06
5.31666e-05
-4.17126e-06
5.321e-05
-6.11766e-06
5.28146e-05
-7.82553e-06
5.171e-05
-9.12603e-06
4.93733e-05
-9.61579e-06
4.48715e-05
-9.23515e-06
3.45527e-05
-5.3416e-06
1.70987e-05
5.11149e-06
-5.11141e-06
8.71648e-06
-3.60496e-06
1.14332e-05
-2.71671e-06
1.29337e-05
-1.50033e-06
1.31081e-05
-1.74454e-07
1.16749e-05
1.43338e-06
7.59082e-06
4.08398e-06
1.51068e-06
6.08023e-06
-1.09178e-05
1.24283e-05
-2.54157e-05
1.4498e-05
-3.65198e-05
1.1104e-05
8.58479e-06
-4.51046e-05
1.57266e-06
-6.68398e-06
3.95639e-06
-5.98868e-06
4.26076e-06
-3.02093e-06
2.68587e-06
7.45796e-08
-1.05068e-06
3.56224e-06
-8.35698e-06
8.73971e-06
-1.96243e-05
1.53513e-05
-3.18321e-05
1.82881e-05
-3.8118e-05
1.87142e-05
-4.062e-05
1.7e-05
-4.29898e-05
1.34737e-05
1.05786e-05
-4.49836e-05
1.36614e-06
-8.05e-06
1.20061e-06
-5.82306e-06
-8.401e-07
-9.80151e-07
-5.63442e-06
4.86898e-06
-1.40021e-05
1.19299e-05
-2.36094e-05
1.83471e-05
-2.96923e-05
2.14341e-05
-3.29016e-05
2.14974e-05
-3.42465e-05
2.0059e-05
-3.47097e-05
1.74632e-05
-3.54077e-05
1.41717e-05
1.1228e-05
-3.60572e-05
-1.58601e-06
-6.46384e-06
-4.3929e-06
-3.01606e-06
-8.9361e-06
3.56315e-06
-1.53304e-05
1.12634e-05
-2.15493e-05
1.81487e-05
-2.542e-05
2.22178e-05
-2.70025e-05
2.30166e-05
-2.74169e-05
2.19118e-05
-2.73525e-05
1.99946e-05
-2.71842e-05
1.72948e-05
-2.72279e-05
1.42154e-05
1.12703e-05
-2.72702e-05
-3.57663e-06
-2.88697e-06
-8.42405e-06
1.83157e-06
-1.34921e-05
8.63133e-06
-1.79389e-05
1.57102e-05
-2.06199e-05
2.08299e-05
-2.12741e-05
2.2872e-05
-2.08843e-05
2.26268e-05
-2.01565e-05
2.11839e-05
-1.92499e-05
1.9088e-05
-1.8496e-05
1.65408e-05
-1.80223e-05
1.37417e-05
1.09356e-05
-1.76876e-05
-4.85887e-06
1.97254e-06
-9.85326e-06
6.82626e-06
-1.37744e-05
1.25526e-05
-1.58959e-05
1.7832e-05
-1.61135e-05
2.10474e-05
-1.51272e-05
2.18858e-05
-1.3703e-05
2.12025e-05
-1.22276e-05
1.97086e-05
-1.088e-05
1.77403e-05
-9.78711e-06
1.54479e-05
-8.9913e-06
1.29459e-05
1.03599e-05
-8.41563e-06
-5.31995e-06
7.29277e-06
-9.5426e-06
1.10492e-05
-1.18838e-05
1.4894e-05
-1.20814e-05
1.80298e-05
-1.069e-05
1.96562e-05
-8.6207e-06
1.98166e-05
-6.44783e-06
1.90297e-05
-4.42963e-06
1.76904e-05
-2.68493e-06
1.59956e-05
-1.27008e-06
1.4033e-05
-1.89281e-07
1.18651e-05
9.55921e-06
6.11395e-07
-5.33266e-06
1.26257e-05
-8.44616e-06
1.41628e-05
-9.1241e-06
1.55721e-05
-7.73686e-06
1.66426e-05
-5.16774e-06
1.70872e-05
-2.23076e-06
1.68797e-05
6.17676e-07
1.61813e-05
3.16905e-06
1.5139e-05
5.33869e-06
1.3826e-05
7.10365e-06
1.22681e-05
8.48257e-06
1.04861e-05
8.51595e-06
9.52582e-06
-4.71727e-06
1.7343e-05
-6.54459e-06
1.59902e-05
-5.47974e-06
1.45072e-05
-2.6951e-06
1.38581e-05
9.05938e-07
1.34862e-05
4.62404e-06
1.31616e-05
8.0805e-06
1.27249e-05
1.11112e-05
1.21083e-05
1.36627e-05
1.12745e-05
1.5738e-05
1.01928e-05
1.73766e-05
8.8475e-06
7.25791e-06
1.86346e-05
-4.06616e-06
2.14092e-05
-3.1178e-06
1.50418e-05
4.43829e-07
1.09457e-05
4.72277e-06
9.57911e-06
9.20461e-06
9.00435e-06
1.34505e-05
8.91574e-06
1.72262e-05
8.94914e-06
2.04539e-05
8.88062e-06
2.31335e-05
8.59488e-06
2.53012e-05
8.02511e-06
2.70195e-05
7.1292e-06
5.92565e-06
2.83518e-05
6.27371e-07
2.07818e-05
6.13842e-06
9.53078e-06
1.19937e-05
5.09035e-06
1.73191e-05
4.2537e-06
2.1997e-05
4.3264e-06
2.60177e-05
4.89509e-06
2.942e-05
5.54684e-06
3.22496e-05
6.05098e-06
3.45621e-05
6.28235e-06
3.64169e-05
6.17036e-06
3.78897e-05
5.65637e-06
4.77387e-06
3.90415e-05
2.0473e-05
3.08784e-07
2.87833e-05
1.22043e-06
3.38453e-05
2.84121e-08
3.76952e-05
4.0372e-07
4.06593e-05
1.36227e-06
4.30914e-05
2.46295e-06
4.5131e-05
3.50729e-06
4.68196e-05
4.36238e-06
4.81882e-05
4.91375e-06
4.92699e-05
5.08864e-06
5.01296e-05
4.79664e-06
5.08116e-05
4.09188e-06
-5.114e-05
6.03528e-06
-5.51963e-05
4.05637e-06
-5.70891e-05
1.89268e-06
-5.7194e-05
1.04963e-07
-5.54733e-05
-1.72077e-06
-5.20348e-05
-3.43849e-06
-4.66142e-05
-5.42065e-06
-3.92489e-05
-7.36525e-06
-2.97438e-05
-9.50517e-06
-1.83379e-05
-1.14059e-05
-6.97798e-06
-1.13599e-05
-6.978e-06
-4.66616e-05
7.71324e-06
-4.74999e-05
4.89469e-06
-4.78267e-05
2.21946e-06
-4.7432e-05
-2.89751e-07
-4.63595e-05
-2.79324e-06
-4.43308e-05
-5.46725e-06
-4.13397e-05
-8.41172e-06
-3.70068e-05
-1.16982e-05
-3.11693e-05
-1.53427e-05
-2.35182e-05
-1.9057e-05
-1.31084e-05
-2.17698e-05
-2.00864e-05
-3.66217e-05
8.27774e-06
-3.70821e-05
5.35511e-06
-3.73237e-05
2.46106e-06
-3.71542e-05
-4.59332e-07
-3.64189e-05
-3.52856e-06
-3.50475e-05
-6.8386e-06
-3.29356e-05
-1.05237e-05
-2.99515e-05
-1.46823e-05
-2.60082e-05
-1.9286e-05
-2.06261e-05
-2.44391e-05
-1.27864e-05
-2.96095e-05
-3.28728e-05
-2.72999e-05
8.30735e-06
-2.72749e-05
5.33013e-06
-2.71286e-05
2.31471e-06
-2.67868e-05
-8.01124e-07
-2.61879e-05
-4.12741e-06
-2.52575e-05
-7.76898e-06
-2.3902e-05
-1.18792e-05
-2.19924e-05
-1.65919e-05
-1.93123e-05
-2.19662e-05
-1.53697e-05
-2.83817e-05
-9.40021e-06
-3.5579e-05
-4.2273e-05
-1.746e-05
8.07977e-06
-1.72947e-05
5.1648e-06
-1.71371e-05
2.1571e-06
-1.69303e-05
-1.00795e-06
-1.66296e-05
-4.42816e-06
-1.61834e-05
-8.21516e-06
-1.55324e-05
-1.25302e-05
-1.46119e-05
-1.75125e-05
-1.32166e-05
-2.33614e-05
-1.11232e-05
-3.04751e-05
-7.44015e-06
-3.92621e-05
-4.97132e-05
-8.02003e-06
7.68413e-06
-7.76345e-06
4.90822e-06
-7.60537e-06
1.999e-06
-7.51073e-06
-1.10259e-06
-7.45505e-06
-4.48387e-06
-7.41539e-06
-8.25482e-06
-7.38597e-06
-1.25596e-05
-7.32697e-06
-1.75715e-05
-7.12206e-06
-2.35664e-05
-6.58476e-06
-3.10123e-05
-4.87618e-06
-4.09707e-05
-5.45893e-05
1.17434e-06
7.12118e-06
1.53534e-06
4.5472e-06
1.72226e-06
1.81206e-06
1.75104e-06
-1.1314e-06
1.6231e-06
-4.35595e-06
1.32672e-06
-7.95847e-06
8.34998e-07
-1.20679e-05
1.31587e-07
-1.68681e-05
-7.57435e-07
-2.26774e-05
-1.70803e-06
-3.00618e-05
-2.24808e-06
-4.04307e-05
-5.68374e-05
1.02806e-05
6.36636e-06
1.07806e-05
4.04725e-06
1.10458e-05
1.54681e-06
1.10786e-05
-1.16419e-06
1.08615e-05
-4.13886e-06
1.03535e-05
-7.45055e-06
9.48169e-06
-1.11962e-05
8.15344e-06
-1.55399e-05
6.27591e-06
-2.07999e-05
3.83481e-06
-2.76207e-05
1.22161e-06
-3.78175e-05
-5.56159e-05
1.95693e-05
5.43169e-06
2.02157e-05
3.40087e-06
2.05923e-05
1.17018e-06
2.06927e-05
-1.26464e-06
2.04855e-05
-3.93166e-06
1.99057e-05
-6.87082e-06
1.88313e-05
-1.01217e-05
1.70836e-05
-1.37923e-05
1.44168e-05
-1.81331e-05
1.05774e-05
-2.37814e-05
5.66867e-06
-3.29089e-05
-4.99472e-05
2.93682e-05
4.41519e-06
3.01035e-05
2.66556e-06
3.05788e-05
6.94949e-07
3.07833e-05
-1.46924e-06
3.06747e-05
-3.82305e-06
3.0169e-05
-6.36509e-06
2.91015e-05
-9.05432e-06
2.72159e-05
-1.19067e-05
2.41009e-05
-1.50182e-05
1.92514e-05
-1.89319e-05
1.18537e-05
-2.55112e-05
-3.80937e-05
3.99569e-05
3.49979e-06
4.06595e-05
1.96291e-06
4.11739e-05
1.80583e-07
4.14873e-05
-1.78264e-06
4.15476e-05
-3.88341e-06
4.12572e-05
-6.0747e-06
4.04243e-05
-8.2214e-06
3.87487e-05
-1.02311e-05
3.56835e-05
-1.1953e-05
3.04892e-05
-1.37375e-05
2.0639e-05
-1.56611e-05
-1.74547e-05
5.14237e-05
2.88772e-06
5.19628e-05
1.42378e-06
5.24551e-05
-3.11695e-07
5.2879e-05
-2.20653e-06
5.31673e-05
-4.17172e-06
5.32107e-05
-6.11811e-06
5.28153e-05
-7.82598e-06
5.17106e-05
-9.12648e-06
4.93738e-05
-9.61627e-06
4.4872e-05
-9.23571e-06
3.45531e-05
-5.34212e-06
1.70983e-05
5.11199e-06
-5.11174e-06
8.71702e-06
-3.60486e-06
1.14339e-05
-2.71675e-06
1.29344e-05
-1.50021e-06
1.31086e-05
-1.74007e-07
1.16733e-05
1.43563e-06
7.58619e-06
4.08719e-06
1.50528e-06
6.08117e-06
-1.09271e-05
1.24323e-05
-2.54238e-05
1.44968e-05
-3.65242e-05
1.11004e-05
8.58313e-06
-4.51074e-05
1.57298e-06
-6.68451e-06
3.95608e-06
-5.9879e-06
4.2593e-06
-3.01974e-06
2.68277e-06
7.64516e-08
-1.05674e-06
3.56578e-06
-8.36677e-06
8.74578e-06
-1.96358e-05
1.53562e-05
-3.18419e-05
1.82874e-05
-3.8122e-05
1.87123e-05
-4.06213e-05
1.69961e-05
-4.29901e-05
1.34692e-05
1.05763e-05
-4.49834e-05
1.36448e-06
-8.04893e-06
1.19648e-06
-5.81981e-06
-8.47502e-07
-9.75667e-07
-5.64685e-06
4.87592e-06
-1.40181e-05
1.19371e-05
-2.36222e-05
1.83499e-05
-2.96981e-05
2.14321e-05
-3.29033e-05
2.14925e-05
-3.42447e-05
2.00537e-05
-3.4706e-05
1.74574e-05
-3.54056e-05
1.41688e-05
1.12259e-05
-3.60552e-05
-1.58916e-06
-6.45968e-06
-4.39981e-06
-3.00906e-06
-8.94672e-06
3.57133e-06
-1.53416e-05
1.12709e-05
-2.15566e-05
1.81521e-05
-2.54223e-05
2.22157e-05
-2.70017e-05
2.30116e-05
-2.74149e-05
2.19057e-05
-2.735e-05
1.99887e-05
-2.71822e-05
1.72896e-05
-2.72259e-05
1.42125e-05
1.12682e-05
-2.72683e-05
-3.57928e-06
-2.88022e-06
-8.42873e-06
1.84055e-06
-1.3497e-05
8.63969e-06
-1.79414e-05
1.57155e-05
-2.06193e-05
2.08301e-05
-2.12716e-05
2.2868e-05
-2.08813e-05
2.26213e-05
-2.01536e-05
2.11781e-05
-1.92475e-05
1.90826e-05
-1.84944e-05
1.65365e-05
-1.80208e-05
1.37389e-05
1.09336e-05
-1.76862e-05
-4.8604e-06
1.98054e-06
-9.85382e-06
6.83418e-06
-1.37732e-05
1.25593e-05
-1.58931e-05
1.78355e-05
-1.61096e-05
2.10467e-05
-1.51236e-05
2.18821e-05
-1.36999e-05
2.11977e-05
-1.22253e-05
1.97035e-05
-1.08783e-05
1.77357e-05
-9.786e-06
1.54442e-05
-8.99032e-06
1.29432e-05
1.0358e-05
-8.41475e-06
-5.31879e-06
7.29974e-06
-9.54013e-06
1.10558e-05
-1.18799e-05
1.48993e-05
-1.20767e-05
1.80325e-05
-1.06856e-05
1.96558e-05
-8.61719e-06
1.98138e-05
-6.44529e-06
1.90258e-05
-4.42794e-06
1.76862e-05
-2.68393e-06
1.59917e-05
-1.26951e-06
1.40298e-05
-1.88864e-07
1.18626e-05
9.55738e-06
6.11756e-07
-5.3306e-06
1.26305e-05
-8.44241e-06
1.41678e-05
-9.11934e-06
1.55763e-05
-7.73185e-06
1.66452e-05
-5.16335e-06
1.70873e-05
-2.22743e-06
1.68779e-05
6.19951e-07
1.61785e-05
3.17042e-06
1.51358e-05
5.33938e-06
1.38228e-05
7.10392e-06
1.22652e-05
8.48267e-06
1.04839e-05
8.5142e-06
9.52585e-06
-4.71473e-06
1.73454e-05
-6.54067e-06
1.59938e-05
-5.475e-06
1.45107e-05
-2.69022e-06
1.38604e-05
9.10254e-07
1.34869e-05
4.62738e-06
1.31608e-05
8.08283e-06
1.27231e-05
1.11127e-05
1.21059e-05
1.36635e-05
1.1272e-05
1.57383e-05
1.01904e-05
1.73767e-05
8.84549e-06
7.25629e-06
1.86346e-05
-4.06437e-06
2.14097e-05
-3.11494e-06
1.50443e-05
4.47649e-07
1.09481e-05
4.72696e-06
9.58108e-06
9.20852e-06
9.00534e-06
1.34537e-05
8.91561e-06
1.72287e-05
8.94809e-06
2.04557e-05
8.87899e-06
2.31346e-05
8.59299e-06
2.53018e-05
8.02323e-06
2.70198e-05
7.12751e-06
5.92423e-06
2.83519e-05
6.27855e-07
2.07817e-05
6.14022e-06
9.53191e-06
1.19964e-05
5.09185e-06
1.73223e-05
4.25515e-06
2.20004e-05
4.3273e-06
2.60207e-05
4.89522e-06
2.94226e-05
5.54626e-06
3.22517e-05
6.0499e-06
3.45637e-05
6.28099e-06
3.6418e-05
6.16894e-06
3.78904e-05
5.65505e-06
4.77273e-06
3.90419e-05
2.04735e-05
3.08074e-07
2.87846e-05
1.22074e-06
3.38472e-05
2.91404e-08
3.76978e-05
4.0453e-07
4.06622e-05
1.36282e-06
4.30943e-05
2.46306e-06
4.51336e-05
3.50692e-06
4.68219e-05
4.36166e-06
4.819e-05
4.91282e-06
4.92713e-05
5.08765e-06
5.01307e-05
4.7957e-06
5.08124e-05
4.09107e-06
-5.11411e-05
6.03364e-06
-5.51964e-05
4.05532e-06
-5.70884e-05
1.89194e-06
-5.71929e-05
1.04501e-07
-5.54719e-05
-1.72102e-06
-5.20334e-05
-3.43857e-06
-4.66128e-05
-5.4206e-06
-3.92477e-05
-7.3651e-06
-2.97428e-05
-9.5049e-06
-1.83372e-05
-1.14056e-05
-6.97771e-06
-1.13595e-05
-6.97772e-06
-4.66607e-05
7.71098e-06
-4.74987e-05
4.8933e-06
-4.78253e-05
2.2185e-06
-4.74305e-05
-2.90322e-07
-4.6358e-05
-2.7935e-06
-4.43293e-05
-5.46726e-06
-4.13384e-05
-8.41154e-06
-3.70057e-05
-1.16979e-05
-3.11683e-05
-1.53422e-05
-2.35176e-05
-1.90564e-05
-1.3108e-05
-2.17691e-05
-2.00857e-05
-3.66201e-05
8.27589e-06
-3.70806e-05
5.35377e-06
-3.73222e-05
2.46015e-06
-3.71527e-05
-4.59847e-07
-3.64175e-05
-3.52873e-06
-3.50463e-05
-6.83848e-06
-3.29345e-05
-1.05233e-05
-2.99506e-05
-1.46818e-05
-2.60075e-05
-1.92853e-05
-2.06256e-05
-2.44383e-05
-1.27861e-05
-2.96086e-05
-3.28719e-05
-2.72981e-05
8.3057e-06
-2.72733e-05
5.32895e-06
-2.71271e-05
2.31398e-06
-2.67855e-05
-8.01475e-07
-2.61868e-05
-4.12744e-06
-2.52566e-05
-7.76873e-06
-2.39012e-05
-1.18787e-05
-2.19917e-05
-1.65913e-05
-1.93117e-05
-2.19653e-05
-1.53693e-05
-2.83807e-05
-9.39999e-06
-3.55779e-05
-4.22719e-05
-1.74588e-05
8.07828e-06
-1.72936e-05
5.16379e-06
-1.71361e-05
2.15649e-06
-1.69294e-05
-1.00819e-06
-1.66287e-05
-4.4281e-06
-1.61826e-05
-8.21482e-06
-1.55318e-05
-1.25296e-05
-1.46113e-05
-1.75117e-05
-1.32162e-05
-2.33605e-05
-1.1123e-05
-3.0474e-05
-7.44001e-06
-3.92609e-05
-4.97119e-05
-8.01923e-06
7.68277e-06
-7.76275e-06
4.90729e-06
-7.60472e-06
1.99847e-06
-7.51013e-06
-1.10279e-06
-7.45447e-06
-4.48376e-06
-7.41487e-06
-8.25444e-06
-7.38548e-06
-1.2559e-05
-7.32656e-06
-1.75707e-05
-7.12171e-06
-2.35653e-05
-6.58454e-06
-3.10111e-05
-4.87604e-06
-4.09694e-05
-5.45879e-05
1.17466e-06
7.11986e-06
1.53564e-06
4.54631e-06
1.72256e-06
1.81154e-06
1.75135e-06
-1.13159e-06
1.62342e-06
-4.35585e-06
1.32705e-06
-7.95809e-06
8.35317e-07
-1.20673e-05
1.31889e-07
-1.68672e-05
-7.57205e-07
-2.26762e-05
-1.70786e-06
-3.00605e-05
-2.24799e-06
-4.04293e-05
-5.68359e-05
1.02806e-05
6.36507e-06
1.07806e-05
4.04636e-06
1.10459e-05
1.54627e-06
1.10787e-05
-1.1644e-06
1.08616e-05
-4.13878e-06
1.03537e-05
-7.4502e-06
9.48188e-06
-1.11955e-05
8.15364e-06
-1.5539e-05
6.27609e-06
-2.07987e-05
3.83491e-06
-2.76193e-05
1.22167e-06
-3.7816e-05
-5.56143e-05
1.95692e-05
5.43046e-06
2.02156e-05
3.4e-06
2.05922e-05
1.16964e-06
2.06927e-05
-1.26488e-06
2.04855e-05
-3.93163e-06
1.99058e-05
-6.87051e-06
1.88314e-05
-1.01211e-05
1.70837e-05
-1.37914e-05
1.44169e-05
-1.81319e-05
1.05775e-05
-2.378e-05
5.66872e-06
-3.29074e-05
-4.99456e-05
2.93683e-05
4.41408e-06
3.01035e-05
2.66476e-06
3.05787e-05
6.94442e-07
3.07833e-05
-1.46947e-06
3.06747e-05
-3.82303e-06
3.01689e-05
-6.36481e-06
2.91015e-05
-9.05376e-06
2.7216e-05
-1.19058e-05
2.4101e-05
-1.5017e-05
1.92514e-05
-1.89304e-05
1.18537e-05
-2.55096e-05
-3.8092e-05
3.99571e-05
3.49888e-06
4.06597e-05
1.96224e-06
4.11739e-05
1.80159e-07
4.14873e-05
-1.78283e-06
4.15476e-05
-3.88337e-06
4.12572e-05
-6.07441e-06
4.04243e-05
-8.22084e-06
3.87487e-05
-1.02303e-05
3.56835e-05
-1.19519e-05
3.04892e-05
-1.37361e-05
2.0639e-05
-1.56595e-05
-1.7453e-05
5.14242e-05
2.88705e-06
5.19631e-05
1.42329e-06
5.24553e-05
-3.11992e-07
5.28791e-05
-2.20662e-06
5.31673e-05
-4.17161e-06
5.32107e-05
-6.11777e-06
5.28152e-05
-7.82538e-06
5.17106e-05
-9.12557e-06
4.93737e-05
-9.61507e-06
4.4872e-05
-9.23428e-06
3.4553e-05
-5.34053e-06
1.70999e-05
5.11184e-06
-5.11176e-06
8.71693e-06
-3.60506e-06
1.14338e-05
-2.71686e-06
1.29343e-05
-1.50033e-06
1.31086e-05
-1.74299e-07
1.16744e-05
1.43433e-06
7.58892e-06
4.08539e-06
1.50813e-06
6.08088e-06
-1.09225e-05
1.24305e-05
-2.54203e-05
1.44978e-05
-3.65229e-05
1.11025e-05
8.58416e-06
-4.51071e-05
1.57295e-06
-6.68462e-06
3.95654e-06
-5.98863e-06
4.26042e-06
-3.02059e-06
2.68476e-06
7.5355e-08
-1.05326e-06
3.56386e-06
-8.36146e-06
8.74256e-06
-1.96299e-05
1.53538e-05
-3.18373e-05
1.82883e-05
-3.81207e-05
1.87139e-05
-4.06215e-05
1.69986e-05
-4.29908e-05
1.34719e-05
1.05777e-05
-4.49844e-05
1.36547e-06
-8.04996e-06
1.19893e-06
-5.822e-06
-8.43204e-07
-9.78391e-07
-5.63972e-06
4.87195e-06
-1.4009e-05
1.19332e-05
-2.36152e-05
1.83488e-05
-2.96954e-05
2.1434e-05
-3.29031e-05
2.14959e-05
-3.42464e-05
2.00572e-05
-3.47088e-05
1.74609e-05
-3.54076e-05
1.41707e-05
1.12272e-05
-3.60571e-05
-1.58734e-06
-6.46247e-06
-4.39577e-06
-3.01346e-06
-8.94048e-06
3.56642e-06
-1.53351e-05
1.12667e-05
-2.15526e-05
1.81506e-05
-2.54215e-05
2.22177e-05
-2.70028e-05
2.30153e-05
-2.74167e-05
2.19098e-05
-2.73521e-05
1.99925e-05
-2.7184e-05
1.72929e-05
-2.72278e-05
1.42144e-05
1.12695e-05
-2.72701e-05
-3.57774e-06
-2.88449e-06
-8.42597e-06
1.83498e-06
-1.34941e-05
8.63475e-06
-1.79402e-05
1.57127e-05
-2.06201e-05
2.08307e-05
-2.12736e-05
2.28712e-05
-2.08835e-05
2.26252e-05
-2.01558e-05
2.1182e-05
-1.92494e-05
1.90861e-05
-1.84958e-05
1.65393e-05
-1.80222e-05
1.37407e-05
1.09348e-05
-1.76875e-05
-4.8595e-06
1.97563e-06
-9.8536e-06
6.82937e-06
-1.37742e-05
1.25555e-05
-1.58951e-05
1.7834e-05
-1.61124e-05
2.10479e-05
-1.51261e-05
2.18851e-05
-1.37021e-05
2.12011e-05
-1.2227e-05
1.9707e-05
-1.08797e-05
1.77387e-05
-9.787e-06
1.54466e-05
-8.99124e-06
1.29449e-05
1.03592e-05
-8.4156e-06
-5.31959e-06
7.29549e-06
-9.54186e-06
1.10519e-05
-1.18826e-05
1.48964e-05
-1.20799e-05
1.80314e-05
-1.06886e-05
1.96567e-05
-8.61951e-06
1.98161e-05
-6.44697e-06
1.90287e-05
-4.4291e-06
1.76891e-05
-2.68467e-06
1.59943e-05
-1.27e-06
1.40319e-05
-1.89248e-07
1.18642e-05
9.55849e-06
6.11412e-07
-5.33197e-06
1.26277e-05
-8.44497e-06
1.4165e-05
-9.12254e-06
1.55742e-05
-7.73513e-06
1.66441e-05
-5.16615e-06
1.70878e-05
-2.22949e-06
1.68795e-05
6.18578e-07
1.61806e-05
3.16962e-06
1.51381e-05
5.339e-06
1.38249e-05
7.10381e-06
1.22671e-05
8.48266e-06
1.04853e-05
8.51524e-06
9.5259e-06
-4.71648e-06
1.73442e-05
-6.54331e-06
1.59919e-05
-5.47812e-06
1.45089e-05
-2.69334e-06
1.38594e-05
9.07584e-07
1.34869e-05
4.62539e-06
1.31617e-05
8.08152e-06
1.27245e-05
1.11119e-05
1.21077e-05
1.36632e-05
1.12737e-05
1.57383e-05
1.0192e-05
1.73768e-05
8.84675e-06
7.25723e-06
1.86348e-05
-4.06559e-06
2.14099e-05
-3.11684e-06
1.50431e-05
4.45183e-07
1.0947e-05
4.72432e-06
9.58023e-06
9.20613e-06
9.00511e-06
1.34518e-05
8.91604e-06
1.72273e-05
8.94903e-06
2.04548e-05
8.88022e-06
2.31342e-05
8.5943e-06
2.53017e-05
8.02445e-06
2.70199e-05
7.12855e-06
5.92503e-06
2.83521e-05
6.27548e-07
2.07823e-05
6.13906e-06
9.53164e-06
1.19947e-05
5.09131e-06
1.73203e-05
4.25463e-06
2.19982e-05
4.32711e-06
2.60188e-05
4.89547e-06
2.9421e-05
5.54688e-06
3.22504e-05
6.05075e-06
3.45628e-05
6.28193e-06
3.64174e-05
6.16983e-06
3.78902e-05
5.65581e-06
4.7733e-06
3.90419e-05
2.04731e-05
3.09187e-07
2.87836e-05
1.22109e-06
3.38457e-05
2.9172e-08
3.76958e-05
4.04473e-07
4.06601e-05
1.36288e-06
4.30922e-05
2.46333e-06
4.51317e-05
3.5074e-06
4.68202e-05
4.36225e-06
4.81887e-05
4.91343e-06
4.92703e-05
5.08819e-06
5.013e-05
4.79613e-06
5.08119e-05
4.09134e-06
-5.11417e-05
6.03458e-06
-5.51977e-05
4.05589e-06
-5.709e-05
1.8923e-06
-5.71947e-05
1.04684e-07
-5.54737e-05
-1.72098e-06
-5.20351e-05
-3.43863e-06
-4.66144e-05
-5.42074e-06
-3.92491e-05
-7.3653e-06
-2.9744e-05
-9.50517e-06
-1.83381e-05
-1.14059e-05
-6.9782e-06
-1.13599e-05
-6.97822e-06
-4.66622e-05
7.71228e-06
-4.75003e-05
4.89405e-06
-4.7827e-05
2.21896e-06
-4.74322e-05
-2.90125e-07
-4.63597e-05
-2.79351e-06
-4.43309e-05
-5.46744e-06
-4.13398e-05
-8.41185e-06
-3.70068e-05
-1.16983e-05
-3.11693e-05
-1.53428e-05
-2.35182e-05
-1.9057e-05
-1.31083e-05
-2.17698e-05
-2.00866e-05
-3.66218e-05
8.27697e-06
-3.70823e-05
5.35448e-06
-3.73239e-05
2.46055e-06
-3.71543e-05
-4.59732e-07
-3.64189e-05
-3.52886e-06
-3.50476e-05
-6.83882e-06
-3.29356e-05
-1.05238e-05
-2.99515e-05
-1.46824e-05
-2.60082e-05
-1.92861e-05
-2.0626e-05
-2.44392e-05
-1.27863e-05
-2.96095e-05
-3.28729e-05
-2.72998e-05
8.30665e-06
-2.72749e-05
5.32955e-06
-2.71286e-05
2.31424e-06
-2.67868e-05
-8.01495e-07
-2.6188e-05
-4.12771e-06
-2.52576e-05
-7.76921e-06
-2.3902e-05
-1.18794e-05
-2.19924e-05
-1.6592e-05
-1.93122e-05
-2.19662e-05
-1.53697e-05
-2.83817e-05
-9.4002e-06
-3.5579e-05
-4.22731e-05
-1.746e-05
8.07913e-06
-1.72947e-05
5.16426e-06
-1.71372e-05
2.15666e-06
-1.69304e-05
-1.00832e-06
-1.66296e-05
-4.42846e-06
-1.61834e-05
-8.21541e-06
-1.55324e-05
-1.25304e-05
-1.46118e-05
-1.75126e-05
-1.32165e-05
-2.33615e-05
-1.11232e-05
-3.04751e-05
-7.44008e-06
-3.92621e-05
-4.97132e-05
-8.02002e-06
7.68352e-06
-7.76346e-06
4.90771e-06
-7.6054e-06
1.99856e-06
-7.51074e-06
-1.10296e-06
-7.45505e-06
-4.48419e-06
-7.41537e-06
-8.25508e-06
-7.38593e-06
-1.25599e-05
-7.3269e-06
-1.75717e-05
-7.12199e-06
-2.35665e-05
-6.58468e-06
-3.10124e-05
-4.87612e-06
-4.09707e-05
-5.45893e-05
1.17435e-06
7.12058e-06
1.53535e-06
4.54669e-06
1.72228e-06
1.81162e-06
1.75107e-06
-1.13178e-06
1.62316e-06
-4.35629e-06
1.32681e-06
-7.95876e-06
8.3511e-07
-1.20682e-05
1.31715e-07
-1.68683e-05
-7.573e-07
-2.26775e-05
-1.70791e-06
-3.00618e-05
-2.24797e-06
-4.04306e-05
-5.68373e-05
1.02807e-05
6.36576e-06
1.07806e-05
4.04673e-06
1.10459e-05
1.54635e-06
1.10787e-05
-1.16459e-06
1.08616e-05
-4.13922e-06
1.03537e-05
-7.45087e-06
9.48188e-06
-1.11964e-05
8.15364e-06
-1.55401e-05
6.2761e-06
-2.08e-05
3.83497e-06
-2.76207e-05
1.22172e-06
-3.78174e-05
-5.56156e-05
1.95695e-05
5.4311e-06
2.02159e-05
3.40035e-06
2.05925e-05
1.16972e-06
2.06929e-05
-1.26506e-06
2.04857e-05
-3.93205e-06
1.9906e-05
-6.87116e-06
1.88315e-05
-1.0122e-05
1.70838e-05
-1.37925e-05
1.4417e-05
-1.81332e-05
1.05776e-05
-2.37813e-05
5.66882e-06
-3.29087e-05
-4.99468e-05
2.93685e-05
4.41462e-06
3.01038e-05
2.66505e-06
3.05791e-05
6.94484e-07
3.07836e-05
-1.46967e-06
3.0675e-05
-3.82345e-06
3.01693e-05
-6.36543e-06
2.91018e-05
-9.0546e-06
2.72162e-05
-1.19069e-05
2.41012e-05
-1.50182e-05
1.92516e-05
-1.89318e-05
1.18538e-05
-2.55109e-05
-3.8093e-05
3.99573e-05
3.49925e-06
4.06599e-05
1.96241e-06
4.11743e-05
1.80113e-07
4.14877e-05
-1.78308e-06
4.1548e-05
-3.88381e-06
4.12576e-05
-6.07504e-06
4.04247e-05
-8.22166e-06
3.8749e-05
-1.02313e-05
3.56838e-05
-1.1953e-05
3.04894e-05
-1.37373e-05
2.06391e-05
-1.56607e-05
-1.7454e-05
5.1424e-05
2.88718e-06
5.19632e-05
1.42326e-06
5.24555e-05
-3.1219e-07
5.28794e-05
-2.20699e-06
5.31677e-05
-4.17213e-06
5.32111e-05
-6.11844e-06
5.28156e-05
-7.8262e-06
5.17109e-05
-9.12655e-06
4.9374e-05
-9.61617e-06
4.48722e-05
-9.23547e-06
3.45531e-05
-5.34165e-06
1.7099e-05
6.55539e-05
4.03607e-06
-6.92815e-05
6.49131e-05
1.861e-06
6.36145e-05
1.32669e-06
6.28997e-05
1.11822e-06
6.26795e-05
1.58212e-06
6.27486e-05
2.39366e-06
6.29357e-05
3.31992e-06
6.31222e-05
4.17571e-06
6.3246e-05
4.78991e-06
6.32926e-05
5.04222e-06
6.33141e-05
4.77534e-06
4.05873e-06
6.33476e-05
8.40523e-05
3.1291e-06
-8.31454e-05
8.375e-05
2.16325e-06
8.31113e-05
1.96535e-06
8.22748e-05
1.95467e-06
8.14475e-05
2.40938e-06
8.06461e-05
3.19503e-06
7.98409e-05
4.12516e-06
7.90034e-05
5.01312e-06
7.81351e-05
5.65827e-06
7.7276e-05
5.90128e-06
7.6531e-05
5.52033e-06
4.59695e-06
7.59928e-05
9.69691e-05
2.09433e-06
-9.59343e-05
9.73113e-05
1.82098e-06
9.72791e-05
1.99744e-06
9.68756e-05
2.35816e-06
9.61858e-05
3.09911e-06
9.52495e-05
4.13137e-06
9.40955e-05
5.27913e-06
9.27699e-05
6.3387e-06
9.13545e-05
7.07364e-06
8.9984e-05
7.27178e-06
8.88468e-05
6.65753e-06
5.27283e-06
8.81709e-05
0.000108735
-0.000108092
1.45081e-06
0.000109027
1.52951e-06
0.000108981
2.04347e-06
0.000108555
2.78382e-06
0.000107761
3.89263e-06
0.000106639
5.25385e-06
0.000105252
6.66659e-06
0.000103705
7.88493e-06
0.000102159
8.62031e-06
0.000100844
8.58589e-06
0.000100033
7.4694e-06
0.000100164
5.14123e-06
6.3558e-05
2.6778e-06
6.38953e-05
1.08693e-06
6.43823e-05