/*--------------------------------*- C++ -*----------------------------------*\
| =========                 |                                                 |
| \\      /  F ield         | OpenFOAM: The Open Source CFD Toolbox           |
|  \\    /   O peration     | Version:  4.0                                   |
|   \\  /    A nd           | Web:      www.OpenFOAM.org                      |
|    \\/     M anipulation  |                                                 |
\*---------------------------------------------------------------------------*/
FoamFile
{
    version     2.0;
    format      ascii;
    class       volVectorField;
    location    "500";
    object      U;
}
// * * * * * * * * * * * * * * * * * * * * * * * * * * * * * * * * * * * * * //

dimensions      [0 1 -1 0 0 0 0];

internalField   nonuniform List<vector> 
3072
(
(0.296596 2.21574 0)
(0.315916 1.93431 0)
(0.40068 1.76689 1.42559e-19)
(0.508867 1.65578 6.88329e-19)
(0.632 1.58317 -1.14835e-18)
(0.754013 1.52951 6.26509e-19)
(0.87909 1.60327 3.6185e-19)
(1.18301 1.70989 1.31796e-18)
(2.0034 1.43166 -4.61646e-19)
(2.86282 1.60468 1.09012e-18)
(3.12789 2.00174 8.95279e-19)
(3.39539 2.12896 7.59922e-19)
(-0.371407 2.74063 -2.68754e-19)
(-0.216239 2.37799 -6.29815e-19)
(0.039098 2.33354 5.31897e-19)
(0.312944 2.33075 0)
(0.609726 2.38494 1.12905e-18)
(1.03434 2.39333 -1.50596e-18)
(1.86072 2.42924 0)
(2.61457 2.70684 0)
(2.97662 2.71682 0)
(3.12924 2.77672 8.01658e-19)
(3.16348 2.79763 -2.85342e-18)
(3.24531 2.7845 3.42746e-19)
(-0.347571 2.98976 1.76215e-19)
(-0.114985 2.69501 0)
(0.295158 2.72148 0)
(0.768889 2.74142 -3.79469e-18)
(1.40423 2.8123 1.41532e-18)
(2.14537 2.96211 -2.13563e-18)
(2.67186 2.99383 1.73573e-18)
(2.98985 2.98317 0)
(3.15296 2.86046 0)
(3.24991 2.75307 -1.09449e-18)
(3.28686 2.67066 -1.091e-18)
(3.35395 2.58491 3.82971e-18)
(-0.318209 3.31926 -1.29266e-18)
(0.0642137 3.11071 -2.09808e-18)
(0.625945 3.2056 1.9027e-18)
(1.27603 3.26953 -1.91127e-18)
(1.93566 3.33371 3.69057e-18)
(2.47279 3.32108 -3.56007e-18)
(2.79149 3.20376 -2.10263e-18)
(2.97277 3.07286 -6.62626e-18)
(3.08723 2.91273 -3.20981e-19)
(3.15162 2.78783 3.65398e-18)
(3.19172 2.68119 4.09522e-18)
(3.24477 2.57936 -3.23995e-18)
(-0.104691 3.53859 0)
(0.334633 3.48878 1.24492e-18)
(0.936976 3.59861 -2.93386e-18)
(1.57758 3.63788 3.27492e-18)
(2.1359 3.59704 6.18978e-19)
(2.51138 3.46194 2.07295e-18)
(2.72965 3.28665 2.33253e-18)
(2.86753 3.11281 2.42716e-18)
(2.95473 2.94221 -5.20919e-18)
(3.01608 2.79098 4.38254e-18)
(3.06623 2.6592 -5.91171e-18)
(3.12044 2.53799 7.79854e-18)
(0.104903 3.73757 -4.6578e-18)
(0.586542 3.78738 1.80734e-18)
(1.15298 3.87719 5.33955e-18)
(1.70847 3.85261 0)
(2.14371 3.72539 -7.10014e-18)
(2.42603 3.53777 7.82595e-18)
(2.60611 3.33431 0)
(2.72926 3.13702 -5.91296e-18)
(2.81842 2.9512 5.02005e-18)
(2.88748 2.78425 0)
(2.94694 2.63635 2.88331e-19)
(3.0054 2.50199 4.55469e-18)
(0.324744 3.90266 0)
(0.791402 4.04813 -4.18412e-18)
(1.28037 4.08509 3.89049e-18)
(1.72595 4.00144 0)
(2.0662 3.8243 -4.43973e-18)
(2.30119 3.60644 7.22435e-19)
(2.46584 3.38158 6.27327e-18)
(2.58805 3.16626 5.81883e-18)
(2.68334 2.96628 -5.12651e-18)
(2.7616 2.78505 5.09659e-18)
(2.83023 2.62243 -4.41064e-18)
(2.89489 2.47511 -1.23745e-17)
(0.533464 4.08721 0)
(0.937887 4.29845 3.32299e-18)
(1.32854 4.26488 -4.80084e-18)
(1.67644 4.13628 4.81584e-18)
(1.95307 3.92487 0)
(2.16238 3.6823 -6.30027e-18)
(2.32218 3.43739 6.27252e-18)
(2.44858 3.20401 1.2854e-19)
(2.55204 2.98771 -1.05729e-17)
(2.6395 2.79081 -4.97681e-18)
(2.71637 2.61319 -2.81175e-19)
(2.787 2.45256 8.99298e-18)
(0.705057 4.25724 0)
(1.0284 4.53069 -3.69951e-18)
(1.31474 4.41886 -5.20999e-18)
(1.58297 4.24657 -3.75057e-18)
(1.81436 4.00633 7.66486e-18)
(2.00748 3.74235 0)
(2.16712 3.47946 0)
(2.30043 3.22979 0)
(2.41336 2.99856 0)
(2.51046 2.78772 4.96925e-18)
(2.59565 2.59716 -5.02198e-18)
(2.67251 2.42494 4.81904e-18)
(0.837811 4.51139 0)
(1.02424 4.72018 2.62358e-18)
(1.21135 4.50242 -5.99722e-19)
(1.42803 4.27022 4.34329e-18)
(1.63146 4.00344 4.34536e-18)
(1.81674 3.72562 -6.99211e-18)
(1.98121 3.45512 0)
(2.12514 3.20037 -2.14317e-19)
(2.25057 2.96474 -1.75529e-17)
(2.35988 2.7494 0)
(2.45552 2.55408 1.10135e-17)
(2.54059 2.37696 -5.17503e-18)
(0.986269 4.56346 0)
(0.934359 4.68337 3.081e-18)
(1.01535 4.3746 9.01391e-18)
(1.19429 4.08424 -7.70113e-18)
(1.38519 3.81524 -1.0766e-17)
(1.57422 3.55273 1.70632e-17)
(1.75121 3.30253 -1.92834e-19)
(1.91153 3.06779 -6.72466e-18)
(2.05381 2.84918 5.52076e-18)
(2.17905 2.64733 -1.18012e-17)
(2.28833 2.46214 -1.64314e-17)
(2.38451 2.29218 1.66824e-17)
(0.402512 4.17847 -1.83077e-18)
(0.559329 4.09776 -1.21443e-17)
(0.683744 3.79658 2.33959e-18)
(0.875177 3.55326 0)
(1.08721 3.36342 0)
(1.29654 3.17561 3.56094e-19)
(1.4924 2.98985 1.83033e-17)
(1.67127 2.80881 1.13187e-17)
(1.8316 2.6337 0)
(1.97396 2.46691 1.07113e-17)
(2.09815 2.30958 0)
(2.207 2.16129 4.90705e-19)
(3.64757 2.2357 -2.03239e-20)
(3.87337 2.15784 -2.89393e-19)
(4.03545 2.09012 -3.78435e-19)
(4.12028 1.9359 -5.90537e-19)
(4.13939 1.7998 -2.98784e-19)
(4.0898 1.60636 0)
(3.96715 1.42884 0)
(3.7615 1.22597 8.10864e-19)
(3.48255 1.02786 -9.50799e-19)
(3.10005 0.786288 0)
(2.68096 0.376364 0)
(2.53494 -0.224159 -6.66703e-19)
(3.34638 2.75725 1.71764e-18)
(3.43617 2.7125 0)
(3.52982 2.63048 -8.87046e-19)
(3.62071 2.50913 5.2941e-19)
(3.69922 2.35177 3.05109e-19)
(3.73771 2.19208 2.68955e-18)
(3.7326 2.03588 -4.37681e-18)
(3.67532 1.89233 6.82134e-19)
(3.56498 1.78085 0)
(3.32434 1.67757 0)
(3.04912 1.53722 0)
(3.19037 1.02074 7.31689e-19)
(3.4204 2.4979 1.62539e-18)
(3.48966 2.40783 -4.39852e-18)
(3.55855 2.31401 1.23138e-18)
(3.6176 2.21606 2.97596e-18)
(3.65776 2.12052 -2.9979e-18)
(3.67381 2.02866 0)
(3.65965 1.95206 0)
(3.61632 1.90099 -2.38642e-19)
(3.55119 1.87864 1.09839e-18)
(3.41582 1.87079 0)
(3.19929 1.86025 0)
(3.41269 1.74079 -4.70977e-19)
(3.29691 2.48075 3.5836e-19)
(3.35019 2.38518 4.36866e-18)
(3.40232 2.29062 3.08435e-18)
(3.4502 2.19768 -3.06402e-18)
(3.48921 2.11091 0)
(3.51483 2.03597 1.76008e-18)
(3.52309 1.98083 0)
(3.51693 1.9551 2.51167e-18)
(3.4929 1.95918 -7.75818e-19)
(3.42578 2.01687 0)
(3.24888 2.10084 -5.53363e-19)
(3.5471 2.15035 6.6359e-19)
(3.17451 2.42466 -3.16436e-18)
(3.2292 2.3185 0)
(3.28308 2.21868 0)
(3.33374 2.12648 0)
(3.37853 2.04561 0)
(3.41589 1.98085 -3.18458e-18)
(3.44426 1.94077 -1.42348e-19)
(3.46293 1.93228 -1.41692e-18)
(3.47848 1.96463 0)
(3.4757 2.0536 -1.23885e-18)
(3.36115 2.19722 4.93707e-19)
(3.77395 2.3968 -1.69871e-19)
(3.06279 2.37861 -2.50431e-19)
(3.11995 2.26507 -7.43905e-18)
(3.17646 2.16088 3.49123e-18)
(3.23138 2.0671 3.57371e-21)
(3.2838 1.98665 2.27272e-19)
(3.33344 1.92393 4.92193e-18)
(3.38114 1.88514 -1.5629e-19)
(3.42891 1.87751 -5.44632e-18)
(3.47877 1.912 -2.18015e-18)
(3.53297 2.00595 1.0926e-18)
(3.47946 2.19593 -1.34506e-18)
(3.93824 2.51779 -5.438e-19)
(2.95708 2.3408 1.18123e-17)
(3.01806 2.21813 3.85964e-18)
(3.07835 2.10662 0)
(3.13825 2.00703 0)
(3.19833 1.92163 2.13903e-19)
(3.25984 1.85398 -3.56014e-18)
(3.32517 1.80926 5.54611e-18)
(3.39789 1.79432 -1.29997e-19)
(3.48149 1.82032 1.85773e-18)
(3.5822 1.90714 0)
(3.60372 2.09665 -2.41414e-19)
(4.09821 2.50531 -7.98124e-20)
(2.85352 2.30672 -4.31496e-18)
(2.91774 2.17397 -3.97049e-18)
(2.98103 2.05357 4.25403e-18)
(3.04472 1.94576 -3.96805e-18)
(3.11052 1.85204 5.49019e-22)
(3.18096 1.77489 7.79116e-18)
(3.26002 1.71807 -3.5538e-18)
(3.35339 1.68748 1.99472e-18)
(3.46693 1.69359 0)
(3.61259 1.75769 1.19552e-18)
(3.71084 1.93286 6.12196e-19)
(4.20376 2.38762 -9.21889e-19)
(2.74334 2.26891 4.67978e-18)
(2.81049 2.12687 -4.53454e-18)
(2.87595 1.99768 -4.23114e-18)
(2.94182 1.88091 -8.789e-18)
(3.01068 1.77721 8.42016e-18)
(3.08608 1.68799 -8.03226e-18)
(3.17347 1.61514 0)
(3.28096 1.56275 -1.88563e-18)
(3.41768 1.53905 0)
(3.6027 1.56483 0)
(3.78075 1.70408 0)
(4.26194 2.1295 4.39224e-19)
(2.61712 2.21607 5.02761e-18)
(2.68791 2.06868 -1.01166e-17)
(2.75535 1.93354 9.8609e-18)
(2.82198 1.8096 9.43942e-18)
(2.89083 1.69669 4.53996e-18)
(2.96648 1.59515 0)
(3.05562 1.50469 0)
(3.16825 1.42682 4.33839e-18)
(3.31738 1.36562 0)
(3.5322 1.3386 -1.20964e-18)
(3.7721 1.40302 7.90341e-19)
(4.2483 1.71971 -1.27362e-18)
(2.46879 2.13617 -1.09743e-17)
(2.54445 1.99083 1.01464e-17)
(2.61394 1.85553 -9.91926e-18)
(2.67998 1.72869 -2.48908e-17)
(2.74576 1.6098 -2.46402e-19)
(2.81623 1.49832 1.33902e-19)
(2.89959 1.39168 -4.71743e-18)
(3.00623 1.28809 -4.28554e-18)
(3.15301 1.18549 0)
(3.3774 1.09576 3.6083e-18)
(3.64973 1.031 8.89484e-19)
(4.11826 1.02337 -1.78556e-18)
(2.29978 2.02214 -4.88399e-19)
(2.38032 1.88787 0)
(2.45071 1.75978 0)
(2.51345 1.63596 4.75287e-18)
(2.57238 1.51604 1.448e-17)
(2.63223 1.39916 -4.71904e-18)
(2.70231 1.28117 -2.18105e-19)
(2.79109 1.15701 -2.38647e-18)
(2.91749 1.01721 -2.20837e-18)
(3.10909 0.863508 -2.22333e-18)
(3.38991 0.640293 0)
(3.71806 -0.0354689 2.32433e-18)
(2.21582 -0.296494 -2.24252e-23)
(1.93436 -0.315859 0)
(1.76691 -0.40064 -1.4256e-19)
(1.65579 -0.508837 0)
(1.58317 -0.631995 -5.83247e-19)
(1.52952 -0.753993 6.267e-19)
(1.60325 -0.879091 0)
(1.70987 -1.183 9.75813e-19)
(1.43166 -2.00336 -3.86809e-19)
(1.60465 -2.86284 -9.26785e-20)
(2.00174 -3.12795 -8.66282e-19)
(2.12897 -3.39544 -7.59863e-19)
(2.74068 0.371462 -3.45252e-19)
(2.37799 0.216267 -1.96563e-19)
(2.33355 -0.0390897 6.25501e-19)
(2.33075 -0.31296 0)
(2.38491 -0.609728 -1.1285e-18)
(2.39334 -1.0343 6.6566e-19)
(2.42922 -1.86064 0)
(2.70682 -2.61457 9.767e-19)
(2.71683 -2.97666 -2.38148e-18)
(2.77672 -3.1293 1.88926e-18)
(2.79763 -3.16355 1.5543e-18)
(2.78452 -3.24537 -3.94017e-18)
(2.98978 0.347642 -1.76175e-19)
(2.69501 0.115042 0)
(2.72147 -0.295111 -1.65795e-18)
(2.7414 -0.768817 0)
(2.81225 -1.40413 0)
(2.96206 -2.14531 -8.2861e-19)
(2.9938 -2.67188 3.99156e-18)
(2.98315 -2.98993 -2.73629e-18)
(2.86046 -3.15305 9.45408e-19)
(2.75307 -3.25002 0)
(2.67067 -3.28693 2.6696e-18)
(2.58493 -3.35401 -1.62938e-18)
(3.31927 0.318277 8.4082e-19)
(3.1107 -0.0641226 1.23601e-18)
(3.20558 -0.625851 1.39091e-18)
(3.26949 -1.27594 2.90361e-18)
(3.33367 -1.93562 -1.7037e-18)
(3.32107 -2.47283 -1.18691e-18)
(3.20376 -2.79157 0)
(3.07287 -2.97286 0)
(2.91274 -3.08732 2.14628e-18)
(2.78784 -3.1517 0)
(2.6812 -3.19178 5.11067e-19)
(2.57938 -3.24482 1.41161e-18)
(3.5386 0.104758 1.2632e-18)
(3.48877 -0.334546 -9.98374e-19)
(3.59861 -0.9369 -2.93407e-18)
(3.63788 -1.57754 0)
(3.59705 -2.13592 0)
(3.46196 -2.51146 2.94955e-18)
(3.28666 -2.72974 0)
(3.11282 -2.86763 -5.84581e-18)
(2.94221 -2.95481 -2.50092e-18)
(2.79098 -3.01614 4.38253e-18)
(2.6592 -3.06627 -5.91165e-18)
(2.538 -3.12048 3.69868e-18)
(3.7376 -0.104838 -2.6303e-18)
(3.78739 -0.586475 -1.54303e-18)
(3.87722 -1.15293 2.27598e-18)
(3.85264 -1.70846 3.99737e-19)
(3.72543 -2.14375 3.58337e-18)
(3.53779 -2.4261 -7.48909e-18)
(3.33432 -2.60618 6.87058e-18)
(3.13702 -2.72933 7.04713e-19)
(2.95119 -2.81848 0)
(2.78425 -2.88753 0)
(2.63635 -2.94698 8.87709e-18)
(2.502 -3.00542 6.12944e-20)
(3.90269 -0.324705 -2.8915e-20)
(4.04815 -0.791363 -2.31212e-18)
(4.08513 -1.28035 0)
(4.00148 -1.72595 -4.52729e-18)
(3.82433 -2.06623 4.73072e-18)
(3.60646 -2.30125 1.13054e-17)
(3.38159 -2.4659 6.94195e-18)
(3.16626 -2.58811 8.93959e-19)
(2.96627 -2.68339 -1.08156e-17)
(2.78504 -2.76163 4.73592e-18)
(2.62242 -2.83025 5.07327e-18)
(2.47511 -2.8949 2.74048e-19)
(4.08723 -0.533438 2.18688e-19)
(4.29847 -0.937864 3.32271e-18)
(4.26492 -1.32853 0)
(4.13632 -1.67644 -4.81559e-18)
(3.9249 -1.95309 -3.5174e-18)
(3.68232 -2.16242 6.43185e-19)
(3.43739 -2.32222 -1.18399e-17)
(3.20401 -2.44863 4.30766e-19)
(2.9877 -2.55207 -2.75663e-19)
(2.7908 -2.63952 5.23138e-18)
(2.61318 -2.71638 -4.22966e-18)
(2.45255 -2.787 2.24936e-19)
(4.25727 -0.705053 -3.38744e-18)
(4.53071 -1.02839 1.47961e-18)
(4.41889 -1.31473 -7.58255e-18)
(4.2466 -1.58297 3.75029e-18)
(4.00635 -1.81438 0)
(3.74236 -2.00751 0)
(3.47946 -2.16715 6.45623e-18)
(3.22978 -2.30046 1.18543e-17)
(2.99855 -2.41338 -5.43819e-18)
(2.78771 -2.51047 -4.96911e-18)
(2.59715 -2.59565 -4.77815e-18)
(2.42493 -2.6725 0)
(4.5114 -0.837816 7.11653e-20)
(4.72018 -1.02423 3.98946e-18)
(4.50243 -1.21134 9.03676e-18)
(4.27024 -1.42803 0)
(4.00346 -1.63148 7.57875e-18)
(3.72563 -1.81676 0)
(3.45512 -1.98123 3.35593e-19)
(3.20037 -2.12516 -5.65345e-18)
(2.96473 -2.25058 6.15077e-18)
(2.74939 -2.35988 0)
(2.55406 -2.45552 0)
(2.37695 -2.54058 -1.0679e-17)
(4.56346 -0.986273 -6.45659e-18)
(4.68336 -0.934353 3.08087e-18)
(4.3746 -1.01535 5.14618e-19)
(4.08425 -1.19429 -8.49618e-18)
(3.81526 -1.3852 -3.32768e-18)
(3.55274 -1.57424 -3.41102e-18)
(3.30253 -1.75122 -6.65366e-18)
(3.06778 -1.91155 -1.88194e-17)
(2.84916 -2.05381 -5.52044e-18)
(2.64731 -2.17905 -1.18005e-17)
(2.46212 -2.28832 1.14875e-17)
(2.29217 -2.38449 1.05898e-17)
(4.17847 -0.402523 3.50406e-18)
(4.09776 -0.559335 -1.39246e-18)
(3.79659 -0.683753 3.51734e-19)
(3.55327 -0.875189 7.26678e-18)
(3.36343 -1.08722 0)
(3.17562 -1.29656 -6.57605e-18)
(2.98986 -1.49242 5.89418e-18)
(2.80881 -1.67128 5.25682e-18)
(2.6337 -1.8316 -1.71387e-17)
(2.4669 -1.97395 1.07108e-17)
(2.30957 -2.09814 -1.05099e-17)
(2.16127 -2.20698 0)
(2.23573 -3.64763 -3.56976e-19)
(2.15788 -3.87344 8.67973e-19)
(2.09017 -4.03552 -9.18375e-19)
(1.93594 -4.12035 -2.07094e-19)
(1.79984 -4.13946 -1.61424e-19)
(1.6064 -4.08988 8.61661e-20)
(1.42887 -3.96722 -1.29129e-19)
(1.22599 -3.76157 -3.27049e-19)
(1.02788 -3.48261 -9.50735e-19)
(0.786304 -3.10009 0)
(0.376392 -2.68099 0)
(-0.224082 -2.535 -6.66649e-19)
(2.75727 -3.34644 -6.85606e-20)
(2.71253 -3.43623 2.19283e-18)
(2.63052 -3.52987 -8.87035e-19)
(2.50917 -3.62076 0)
(2.35181 -3.69927 1.76516e-18)
(2.19212 -3.73775 0)
(2.03591 -3.73264 1.31196e-18)
(1.89236 -3.67536 2.25336e-18)
(1.78088 -3.56502 -1.9134e-18)
(1.67759 -3.32434 0)
(1.53726 -3.04914 0)
(1.02084 -3.19038 -3.02777e-20)
(2.49792 -3.42046 1.17284e-18)
(2.40786 -3.4897 -1.09126e-18)
(2.31404 -3.55859 1.23131e-18)
(2.21609 -3.61764 0)
(2.12055 -3.65779 -1.31846e-18)
(2.02869 -3.67384 3.29672e-18)
(1.9521 -3.65968 -4.75494e-18)
(1.90102 -3.61634 -5.26662e-18)
(1.87867 -3.5512 3.0874e-18)
(1.87083 -3.41583 0)
(1.86029 -3.19929 6.15113e-19)
(1.74085 -3.41269 1.52725e-19)
(2.48077 -3.29695 1.35522e-18)
(2.3852 -3.35022 -3.04477e-18)
(2.29064 -3.40235 3.08425e-18)
(2.19771 -3.45022 -3.0639e-18)
(2.11093 -3.48922 0)
(2.036 -3.51485 1.76e-18)
(1.98086 -3.5231 1.17673e-18)
(1.95513 -3.51694 6.9172e-19)
(1.95921 -3.49291 -1.57492e-18)
(2.01691 -3.42578 0)
(2.10089 -3.24888 -3.56333e-19)
(2.15043 -3.54711 5.94557e-19)
(2.42468 -3.17454 3.54669e-18)
(2.31851 -3.22922 -1.82712e-18)
(2.2187 -3.28309 0)
(2.1265 -3.33375 0)
(2.04563 -3.37854 1.73931e-18)
(1.98087 -3.41589 -1.45578e-18)
(1.9408 -3.44426 -2.58695e-19)
(1.93231 -3.46293 0)
(1.96466 -3.47848 -8.39532e-19)
(2.05364 -3.4757 1.23874e-18)
(2.19727 -3.36115 -1.08099e-18)
(2.39686 -3.77395 -2.73561e-19)
(2.37862 -3.06281 -7.51779e-18)
(2.26508 -3.11996 3.58643e-18)
(2.16089 -3.17646 7.21576e-18)
(2.06711 -3.23138 3.57402e-21)
(1.98667 -3.2838 -8.5298e-18)
(1.92395 -3.33344 -3.60478e-18)
(1.88517 -3.38114 -2.46924e-19)
(1.87754 -3.4289 0)
(1.91204 -3.47876 0)
(2.00599 -3.53297 -1.09256e-18)
(2.19598 -3.47945 -7.82769e-19)
(2.51785 -3.93824 2.38611e-19)
(2.3408 -2.95708 4.03661e-18)
(2.21814 -3.01805 -7.94991e-18)
(2.10663 -3.07834 -3.52282e-18)
(2.00704 -3.13824 -2.03497e-19)
(1.92164 -3.19831 3.36881e-18)
(1.854 -3.25983 3.31998e-18)
(1.80928 -3.32515 1.86962e-18)
(1.79434 -3.39788 1.81798e-18)
(1.82035 -3.48148 -2.0148e-18)
(1.90717 -3.58219 0)
(2.09669 -3.60371 1.25736e-18)
(2.50537 -4.09821 -3.61847e-19)
(2.30672 -2.85351 0)
(2.17397 -2.91773 3.9704e-18)
(2.05357 -2.98101 0)
(1.94577 -3.0447 -2.02577e-19)
(1.85205 -3.11049 5.48683e-22)
(1.7749 -3.18093 7.79088e-18)
(1.71809 -3.26 -7.49787e-18)
(1.6875 -3.35337 0)
(1.69361 -3.46691 -2.12979e-18)
(1.75773 -3.61258 1.19548e-18)
(1.9329 -3.71084 -2.33979e-18)
(2.38767 -4.20376 1.17727e-18)
(2.26891 -2.74333 4.67964e-18)
(2.12687 -2.81047 -4.53441e-18)
(1.99768 -2.87592 -4.58758e-18)
(1.88092 -2.9418 4.47459e-18)
(1.77721 -3.01065 4.21327e-18)
(1.688 -3.08606 -1.23028e-17)
(1.61515 -3.17345 3.82773e-18)
(1.56277 -3.28094 0)
(1.53907 -3.41766 1.93896e-18)
(1.56485 -3.60268 0)
(1.70412 -3.78074 2.85215e-18)
(2.12955 -4.26193 -2.08745e-18)
(2.21606 -2.6171 0)
(2.06867 -2.68789 -1.01162e-17)
(1.93354 -2.75532 -5.25267e-18)
(1.8096 -2.82195 -9.1565e-18)
(1.6967 -2.8908 4.53978e-18)
(1.59516 -2.96645 4.27095e-18)
(1.5047 -3.05559 0)
(1.42684 -3.16822 0)
(1.36563 -3.31735 0)
(1.33862 -3.53218 0)
(1.40304 -3.77208 -7.92564e-19)
(1.71975 -4.24829 -1.03807e-19)
(2.13616 -2.46876 5.34792e-18)
(1.99082 -2.54442 4.91539e-18)
(1.85552 -2.61391 2.04125e-17)
(1.72869 -2.67995 5.23761e-18)
(1.6098 -2.74573 1.9636e-17)
(1.49832 -2.8162 -4.71811e-18)
(1.39168 -2.89956 -4.71718e-18)
(1.2881 -3.0062 0)
(1.1855 -3.15299 -4.45244e-18)
(1.09578 -3.37738 -2.39938e-18)
(1.03102 -3.64971 -1.82168e-18)
(1.0234 -4.11825 -1.10956e-25)
(2.02213 -2.29976 0)
(1.88786 -2.38029 0)
(1.75978 -2.45068 -2.03155e-17)
(1.63596 -2.51341 -1.47875e-17)
(1.51604 -2.57235 -4.67038e-18)
(1.39916 -2.6322 0)
(1.28117 -2.70228 4.6836e-18)
(1.15701 -2.79106 0)
(1.01722 -2.91747 -1.93478e-19)
(0.863521 -3.10906 2.22321e-18)
(0.640308 -3.38989 6.55362e-19)
(-0.0354551 -3.71804 4.60136e-18)
(-0.296435 -2.21584 1.16858e-19)
(-0.31582 -1.93435 1.82453e-19)
(-0.400591 -1.76689 -1.63867e-19)
(-0.508812 -1.65577 1.51761e-21)
(-0.6319 -1.58317 0)
(-0.753995 -1.52951 2.38572e-20)
(-0.879018 -1.60345 0)
(-1.18308 -1.71003 5.23444e-19)
(-2.0039 -1.43166 1.14322e-18)
(-2.86311 -1.60497 -3.18409e-20)
(-3.12791 -2.00207 8.4124e-19)
(-3.39546 -2.12915 7.58297e-19)
(0.37152 -2.7407 4.4974e-19)
(0.216295 -2.37799 -6.29457e-19)
(-0.0390507 -2.33359 5.78591e-19)
(-0.312897 -2.33084 -2.38498e-21)
(-0.609792 -2.38514 -1.12837e-18)
(-1.03476 -2.39334 -1.9879e-19)
(-1.86143 -2.42949 -1.14812e-18)
(-2.61496 -2.70713 -1.52638e-18)
(-2.97682 -2.71693 2.20305e-18)
(-3.12933 -2.77688 -5.00216e-19)
(-3.16335 -2.79784 7.38027e-19)
(-3.24529 -2.78458 4.60301e-19)
(0.347654 -2.98984 -3.52349e-19)
(0.114931 -2.69511 0)
(-0.295322 -2.72166 0)
(-0.7693 -2.74165 -1.61298e-18)
(-1.40489 -2.8127 0)
(-2.14587 -2.96253 -1.3065e-18)
(-2.67202 -2.99413 6.64286e-19)
(-2.98976 -2.9834 2.41869e-18)
(-3.15277 -2.86062 -1.2111e-18)
(-3.2495 -2.75325 -1.92517e-18)
(-3.28671 -2.67073 -3.76107e-18)
(-3.35384 -2.58497 3.82984e-18)
(0.318084 -3.31927 -1.68186e-18)
(-0.0644951 -3.11088 -1.2364e-18)
(-0.626352 -3.20584 2.45221e-18)
(-1.27649 -3.26985 9.91564e-19)
(-1.936 -3.334 0)
(-2.47286 -3.32125 -4.41595e-18)
(-2.79137 -3.20386 3.17672e-18)
(-2.97257 -3.07295 0)
(-3.08702 -2.91282 3.17901e-18)
(-3.15141 -2.78791 -5.24358e-18)
(-3.19162 -2.68124 3.58357e-18)
(-3.24468 -2.5794 4.95854e-19)
(0.104472 -3.53855 1.93106e-18)
(-0.334971 -3.48888 3.05735e-18)
(-0.937338 -3.59874 9.80577e-19)
(-1.57785 -3.638 0)
(-2.13597 -3.59708 -2.70363e-18)
(-2.51124 -3.46195 4.46108e-18)
(-2.72943 -3.28667 0)
(-2.86729 -3.11286 -3.19312e-18)
(-2.95452 -2.94227 -2.99502e-18)
(-3.01591 -2.79105 4.38154e-18)
(-3.06613 -2.65925 0)
(-3.12037 -2.53802 -3.34913e-18)
(-0.105193 -3.73745 2.02706e-18)
(-0.586863 -3.78739 7.39024e-19)
(-1.15324 -3.87716 -2.27521e-18)
(-1.7086 -3.85254 -8.89587e-18)
(-2.14367 -3.72531 -3.09814e-19)
(-2.42587 -3.53772 7.82498e-18)
(-2.60591 -3.33429 0)
(-2.72906 -3.13704 8.92592e-18)
(-2.81824 -2.95125 -5.20975e-18)
(-2.88735 -2.78431 4.55467e-18)
(-2.94685 -2.6364 2.88265e-19)
(-3.00533 -2.50203 -6.12793e-20)
(-0.325005 -3.90253 -1.92045e-18)
(-0.791652 -4.04806 -1.47914e-18)
(-1.28056 -4.08496 0)
(-1.72603 -4.00129 9.80611e-18)
(-2.06615 -3.82417 -1.33355e-17)
(-2.30106 -3.60636 -2.19991e-19)
(-2.46568 -3.38156 -1.32119e-17)
(-2.5879 -3.16628 5.52936e-19)
(-2.68321 -2.96632 -5.12542e-18)
(-2.76149 -2.7851 -5.09558e-18)
(-2.83015 -2.62248 5.07239e-18)
(-2.89483 -2.47515 -4.19324e-18)
(-0.53367 -4.08708 -1.69655e-19)
(-0.938075 -4.29835 -1.79843e-18)
(-1.32868 -4.26471 0)
(-1.67649 -4.1361 4.81522e-18)
(-1.95304 -3.92472 3.30216e-18)
(-2.16229 -3.6822 2.95964e-18)
(-2.32206 -3.43734 -5.20136e-19)
(-2.44846 -3.20401 -1.28501e-19)
(-2.55193 -2.98774 -5.67543e-18)
(-2.63941 -2.79085 -6.12572e-19)
(-2.71631 -2.61324 2.38163e-19)
(-2.78695 -2.4526 0)
(-0.705191 -4.25711 2.10884e-18)
(-1.02853 -4.53058 0)
(-1.31484 -4.41869 0)
(-1.58302 -4.24639 -3.75044e-18)
(-1.81434 -4.00617 3.352e-18)
(-2.00742 -3.74223 -6.97019e-18)
(-2.16703 -3.47939 0)
(-2.30034 -3.22977 5.80308e-18)
(-2.41327 -2.99857 -2.46747e-19)
(-2.51039 -2.78775 4.96853e-18)
(-2.59558 -2.59719 -5.21645e-18)
(-2.67246 -2.42498 1.00425e-17)
(-0.837851 -4.51127 4.33261e-18)
(-1.02432 -4.7201 -1.36624e-18)
(-1.21142 -4.50228 -4.81869e-18)
(-1.42807 -4.27005 -8.34205e-18)
(-1.63146 -4.00329 0)
(-1.8167 -3.72549 6.32543e-18)
(-1.98114 -3.45503 -1.28575e-17)
(-2.12506 -3.20032 5.72723e-18)
(-2.25049 -2.96472 6.15033e-18)
(-2.3598 -2.7494 0)
(-2.45546 -2.55409 -5.89061e-18)
(-2.54053 -2.37698 -9.95249e-18)
(-0.986279 -4.56342 -6.40517e-18)
(-0.934413 -4.68331 1.4012e-18)
(-1.0154 -4.3745 4.24962e-18)
(-1.19432 -4.08412 3.60058e-18)
(-1.38519 -3.81512 -4.99873e-20)
(-1.5742 -3.55262 -1.05562e-17)
(-1.75116 -3.30244 1.26299e-17)
(-1.91146 -3.06772 2.47452e-17)
(-2.05373 -2.84913 -1.73644e-17)
(-2.17897 -2.6473 -1.18e-17)
(-2.28826 -2.46213 1.08336e-17)
(-2.38444 -2.29218 0)
(-0.402492 -4.17843 5.41144e-18)
(-0.559346 -4.09774 1.8427e-18)
(-0.683772 -3.79652 1.98779e-18)
(-0.875201 -3.55318 7.81608e-18)
(-1.08721 -3.36332 0)
(-1.29652 -3.17551 6.21978e-18)
(-1.49236 -2.98976 -1.24082e-17)
(-1.67121 -2.80874 -5.49984e-18)
(-1.83153 -2.63365 -5.64053e-18)
(-1.97389 -2.46687 1.07106e-17)
(-2.09808 -2.30955 5.61322e-18)
(-2.20693 -2.16127 1.61493e-17)
(-3.64763 -2.23583 9.45244e-20)
(-3.87342 -2.15795 6.13419e-19)
(-4.03548 -2.0902 2.43405e-19)
(-4.1203 -1.93595 -5.49272e-19)
(-4.13941 -1.79984 1.37182e-19)
(-4.08982 -1.60638 0)
(-3.96717 -1.42885 -5.21482e-19)
(-3.76152 -1.22597 3.95637e-19)
(-3.48257 -1.02786 0)
(-3.10007 -0.786281 1.16063e-19)
(-2.68098 -0.376367 0)
(-2.53498 0.224105 0)
(-3.34633 -2.75737 -4.32374e-18)
(-3.43615 -2.71256 3.0498e-18)
(-3.5298 -2.63053 2.33376e-18)
(-3.6207 -2.50916 -9.87644e-19)
(-3.69921 -2.35179 0)
(-3.7377 -2.19209 0)
(-3.73259 -2.03589 1.49637e-18)
(-3.67532 -1.89233 -1.61244e-18)
(-3.56498 -1.78085 0)
(-3.32432 -1.67756 6.10755e-19)
(-3.04913 -1.53723 -3.78225e-20)
(-3.19037 -1.02081 -1.10682e-18)
(-3.42032 -2.49796 1.67893e-18)
(-3.4896 -2.40788 -2.86544e-18)
(-3.5585 -2.31405 0)
(-3.61757 -2.21609 -3.00777e-18)
(-3.65773 -2.12054 -3.07011e-18)
(-3.67379 -2.02867 6.52257e-18)
(-3.65964 -1.95207 -5.80548e-18)
(-3.61631 -1.90099 0)
(-3.55118 -1.87863 0)
(-3.41581 -1.87078 0)
(-3.19928 -1.86025 -5.3725e-19)
(-3.41267 -1.7408 1.65519e-19)
(-3.29683 -2.48079 -1.35508e-18)
(-3.35012 -2.38521 -4.00694e-19)
(-3.40227 -2.29064 0)
(-3.45017 -2.1977 -3.78288e-19)
(-3.48918 -2.11091 0)
(-3.51481 -2.03598 0)
(-3.52307 -1.98083 1.33686e-18)
(-3.51692 -1.95509 -1.59878e-18)
(-3.49289 -1.95917 1.73542e-18)
(-3.42577 -2.01686 0)
(-3.24888 -2.10084 -5.53374e-19)
(-3.5471 -2.15037 -6.63607e-19)
(-3.17445 -2.4247 7.38886e-18)
(-3.22915 -2.31852 -1.82689e-18)
(-3.28304 -2.2187 3.27174e-18)
(-3.33371 -2.12649 1.46698e-18)
(-3.37851 -2.04561 -4.94565e-18)
(-3.41587 -1.98085 0)
(-3.44425 -1.94076 -1.66536e-18)
(-3.46291 -1.93227 0)
(-3.47847 -1.96461 0)
(-3.47569 -2.05358 1.23878e-18)
(-3.36115 -2.19721 3.1313e-20)
(-3.77393 -2.3968 7.44394e-19)
(-3.06274 -2.37864 -3.50727e-18)
(-3.11991 -2.2651 -2.6599e-19)
(-3.17643 -2.1609 0)
(-3.23135 -2.06711 0)
(-3.28378 -1.98666 -5.39974e-18)
(-3.33343 -1.92393 3.38078e-18)
(-3.38113 -1.88513 3.43552e-18)
(-3.4289 -1.8775 1.78615e-18)
(-3.47876 -1.91199 -4.22846e-18)
(-3.53296 -2.00593 -1.09257e-18)
(-3.47946 -2.19592 0)
(-3.93823 -2.51779 8.49e-19)
(-2.95704 -2.34083 -8.29028e-18)
(-3.01802 -2.21816 3.40193e-18)
(-3.07832 -2.10664 3.75597e-18)
(-3.13822 -2.00705 2.05434e-19)
(-3.1983 -1.92163 -4.19712e-19)
(-3.25982 -1.85398 -3.7573e-18)
(-3.32515 -1.80925 -5.44281e-18)
(-3.39788 -1.7943 -1.94972e-18)
(-3.48148 -1.8203 1.85756e-18)
(-3.58219 -1.90712 0)
(-3.60372 -2.09663 2.12586e-18)
(-4.0982 -2.50531 -5.42153e-19)
(-2.85347 -2.30675 8.4343e-18)
(-2.9177 -2.174 -4.5858e-18)
(-2.981 -2.05359 -4.25345e-18)
(-3.04469 -1.94578 -7.7325e-18)
(-3.11049 -1.85204 7.55855e-18)
(-3.18094 -1.77489 -1.95137e-19)
(-3.26 -1.71806 1.12579e-17)
(-3.35338 -1.68747 1.78522e-18)
(-3.46692 -1.69356 2.12967e-18)
(-3.61258 -1.75767 0)
(-3.71084 -1.93284 -1.45542e-18)
(-4.20375 -2.38761 -6.95955e-19)
(-2.7433 -2.26894 0)
(-2.81045 -2.1269 4.34363e-18)
(-2.87591 -1.9977 4.23058e-18)
(-2.9418 -1.88093 -4.3137e-18)
(-3.01065 -1.77721 -1.64746e-19)
(-3.08606 -1.68799 -4.27046e-18)
(-3.17345 -1.61513 -3.82742e-18)
(-3.28094 -1.56274 0)
(-3.41767 -1.53903 -1.93884e-18)
(-3.60269 -1.5648 -1.20359e-18)
(-3.78074 -1.70406 4.66626e-18)
(-4.26192 -2.12949 -9.99616e-19)
(-2.61707 -2.21609 0)
(-2.68787 -2.0687 0)
(-2.75531 -1.93355 0)
(-2.82195 -1.80961 -1.42754e-17)
(-2.89081 -1.6967 9.05438e-18)
(-2.96645 -1.59515 8.69838e-18)
(-3.0556 -1.50468 0)
(-3.16823 -1.42681 -4.33784e-18)
(-3.31736 -1.36559 0)
(-3.53219 -1.33857 -2.47028e-18)
(-3.77209 -1.40299 -7.92545e-19)
(-4.24829 -1.71969 -1.27364e-18)
(-2.46873 -2.13618 0)
(-2.5444 -1.99084 0)
(-2.6139 -1.85554 1.0493e-17)
(-2.67994 -1.7287 1.46595e-17)
(-2.74573 -1.6098 4.04656e-19)
(-2.8162 -1.49831 4.85163e-18)
(-2.89957 -1.39167 -2.31133e-18)
(-3.00621 -1.28807 6.48918e-18)
(-3.153 -1.18546 4.45211e-18)
(-3.37739 -1.09573 2.24007e-18)
(-3.64971 -1.03097 -1.82163e-18)
(-4.11825 -1.02334 -1.95705e-18)
(-2.29972 -2.02214 0)
(-2.38026 -1.88786 0)
(-2.45066 -1.75978 -9.9198e-18)
(-2.51341 -1.63596 5.21964e-18)
(-2.57235 -1.51603 -4.67022e-18)
(-2.63221 -1.39915 -4.71869e-18)
(-2.70229 -1.28116 4.90151e-18)
(-2.79107 -1.15699 0)
(-2.91748 -1.01718 -4.33973e-18)
(-3.10907 -0.863478 -2.31255e-18)
(-3.38989 -0.640258 2.25127e-18)
(-3.71805 0.0355048 -4.6207e-18)
(-2.21583 0.296448 1.16947e-19)
(-1.93435 0.315823 0)
(-1.76689 0.400598 0)
(-1.65577 0.508807 5.57523e-19)
(-1.58317 0.631937 -5.88042e-19)
(-1.52952 0.753974 0)
(-1.60334 0.87904 0)
(-1.70995 1.18302 5.23285e-19)
(-1.43166 2.00362 1.19214e-18)
(-1.6048 2.863 1.24494e-18)
(-2.00192 3.12797 -2.49832e-20)
(-2.12908 3.39548 7.12585e-19)
(-2.74069 -0.371506 -6.24839e-19)
(-2.37798 -0.216293 0)
(-2.33356 0.0390639 0)
(-2.33078 0.312932 -8.91156e-19)
(-2.385 0.609759 2.32104e-18)
(-2.39334 1.03451 -2.64058e-18)
(-2.42935 1.86101 9.55801e-19)
(-2.70696 2.61478 8.76853e-19)
(-2.71689 2.97678 -2.75876e-19)
(-2.77681 3.12935 8.02758e-19)
(-2.79775 3.16349 0)
(-2.78457 3.24536 -1.82721e-18)
(-2.98981 -0.347671 3.52314e-19)
(-2.69505 -0.11501 0)
(-2.72155 0.295197 0)
(-2.74151 0.769027 -9.42013e-19)
(-2.81244 1.40446 7.1246e-19)
(-2.96226 2.14556 -1.64115e-18)
(-2.99395 2.67198 0)
(-2.98327 2.9899 -3.17566e-18)
(-2.86054 3.15296 3.8932e-18)
(-2.75316 3.24982 -1.09359e-18)
(-2.67071 3.28686 -2.64662e-18)
(-2.58496 3.35396 3.8295e-18)
(-3.31927 -0.318218 -8.40813e-19)
(-3.11078 0.0642605 1.23609e-18)
(-3.20569 0.626049 0)
(-3.26964 1.27617 9.91925e-19)
(-3.33381 1.9358 -6.56116e-19)
(-3.32115 2.47288 1.18694e-18)
(-3.20381 2.79153 0)
(-3.07291 2.97278 -2.39498e-18)
(-2.91278 3.08722 -5.32484e-18)
(-2.78788 3.1516 3.65357e-18)
(-2.68123 3.19174 3.58377e-18)
(-2.57941 3.24479 -6.97511e-18)
(-3.53859 -0.104658 9.652e-19)
(-3.48882 0.334704 -1.24481e-18)
(-3.59866 0.937074 2.93347e-18)
(-3.63793 1.57768 0)
(-3.59707 2.13597 -5.73701e-18)
(-3.46196 2.51141 5.33687e-18)
(-3.28667 2.72965 3.17805e-18)
(-3.11284 2.86752 2.42684e-18)
(-2.94224 2.95472 0)
(-2.79102 3.01607 0)
(-2.65923 3.06623 0)
(-2.53802 3.12045 -7.50025e-19)
(-3.73754 0.104969 5.25997e-18)
(-3.78739 0.586623 0)
(-3.8772 1.15306 -2.27561e-18)
(-3.85261 1.70854 4.6476e-18)
(-3.72538 2.14376 3.53817e-18)
(-3.53777 2.42605 -7.45793e-18)
(-3.33431 2.6061 3.50821e-18)
(-3.13703 2.72925 -1.22505e-17)
(-2.95122 2.8184 -1.90943e-19)
(-2.78428 2.88747 -4.49725e-19)
(-2.63638 2.94694 2.88302e-19)
(-2.50202 3.0054 1.18599e-17)
(-3.90263 0.324819 -6.8878e-18)
(-4.04812 0.791478 4.18384e-18)
(-4.08508 1.28044 -6.46299e-18)
(-4.00142 1.72601 -4.52685e-18)
(-3.82427 2.06623 -8.29017e-18)
(-3.60642 2.30121 -4.42683e-18)
(-3.38157 2.46584 -6.5456e-18)
(-3.16626 2.58804 1.08941e-17)
(-2.96629 2.68333 0)
(-2.78506 2.76158 9.54128e-18)
(-2.62244 2.83021 -1.33993e-17)
(-2.47513 2.89488 4.48831e-18)
(-4.08718 0.533529 -3.13667e-18)
(-4.29843 0.937954 -5.2641e-18)
(-4.26485 1.3286 7.39122e-18)
(-4.13624 1.67648 0)
(-3.92483 1.9531 -4.13851e-18)
(-3.68226 2.16239 6.29971e-18)
(-3.43737 2.32218 -3.20065e-19)
(-3.204 2.44857 1.28523e-19)
(-2.98771 2.55202 -5.24135e-18)
(-2.79081 2.63948 -9.91103e-18)
(-2.6132 2.71635 4.44685e-18)
(-2.45257 2.78698 -4.51103e-18)
(-4.25721 0.705113 2.10893e-18)
(-4.53066 1.02846 0)
(-4.41882 1.31479 0)
(-4.24652 1.58301 0)
(-4.00628 1.81438 3.35198e-18)
(-3.74231 2.00749 0)
(-3.47942 2.16712 -4.10563e-19)
(-3.22977 2.30042 1.15238e-17)
(-2.99855 2.41334 2.81829e-19)
(-2.78772 2.51044 4.96877e-18)
(-2.59716 2.59562 -5.02149e-18)
(-2.42494 2.67248 1.48615e-17)
(-4.51136 0.837843 7.11581e-20)
(-4.72015 1.02428 7.25023e-18)
(-4.50238 1.21139 -2.21822e-18)
(-4.27017 1.42806 0)
(-4.00339 1.63148 0)
(-3.72557 1.81675 0)
(-3.45508 1.9812 0)
(-3.20034 2.12512 5.98619e-18)
(-2.96472 2.25055 -2.30252e-17)
(-2.74939 2.35985 -1.13968e-17)
(-2.55407 2.45549 1.10124e-17)
(-2.37695 2.54055 5.90006e-18)
(-4.56345 0.986288 -6.40489e-18)
(-4.68334 0.934385 -4.25857e-18)
(-4.37456 1.01538 -2.5385e-18)
(-4.0842 1.19432 0)
(-3.8152 1.38521 0)
(-3.55269 1.57423 7.09193e-18)
(-3.30249 1.75121 -1.3114e-17)
(-3.06776 1.91152 2.49618e-17)
(-2.84915 2.05378 1.77008e-17)
(-2.6473 2.17902 1.11118e-17)
(-2.46212 2.2883 -1.08336e-17)
(-2.29217 2.38446 6.27387e-19)
(-4.17846 0.402525 -1.83072e-18)
(-4.09776 0.559352 0)
(-3.79657 0.683774 3.80525e-18)
(-3.55325 0.875208 -1.16193e-17)