/*--------------------------------*- C++ -*----------------------------------*\
| =========                 |                                                 |
| \\      /  F ield         | OpenFOAM: The Open Source CFD Toolbox           |
|  \\    /   O peration     | Version:  4.0                                   |
|   \\  /    A nd           | Web:      www.OpenFOAM.org                      |
|    \\/     M anipulation  |                                                 |
\*---------------------------------------------------------------------------*/
FoamFile
{
    version     2.0;
    format      ascii;
    class       volScalarField;
    location    "100";
    object      epsilon;
}
// * * * * * * * * * * * * * * * * * * * * * * * * * * * * * * * * * * * * * //

dimensions      [0 2 -3 0 0 0 0];

internalField   nonuniform List<scalar> 
3072
(
19.9421
17.8486
17.2887
20.2708
61.4435
179.577
265.962
314.635
352.253
376.287
391.938
398.196
54.5583
59.0164
99.9556
119.512
142.184
194.056
223.574
236.208
241.932
243.668
241.742
235.51
106.275
102.811
118.3
133.176
155.316
180.003
190.177
195.427
197.43
196.058
191.329
184.566
137.438
118.385
122.574
133.23
150.754
161.397
166.865
169.3
169.435
166.476
161.62
155.603
142.737
116.429
119.911
129.224
139.904
146.825
150.548
152.109
151.493
148.406
143.707
138.006
129.264
106.558
111.971
120.314
128.96
134.929
138.15
139.349
138.431
135.404
130.89
125.418
111.823
93.372
102.068
111.631
119.753
125.27
128.278
129.261
128.202
125.259
120.913
115.669
92.1786
81.294
93.5806
104.204
112.348
117.481
120.176
120.811
119.582
116.664
112.427
107.374
76.7547
70.184
86.6076
99.3245
107.245
111.563
113.505
113.474
111.984
108.988
104.775
99.8786
58.9089
63.8765
88.5943
101.915
108.286
110.091
109.498
107.972
105.498
102.054
97.7796
92.9713
61.6623
82.0389
114.842
122.671
120.388
115.469
110.709
105.81
101.072
96.5013
91.7677
86.852
253.902
237.598
230.983
197.383
161.802
136.267
119.568
108.39
100.103
93.2065
87.3395
81.9501
395.828
393.334
386.961
372.423
350.235
321.034
284.387
241.684
192.447
142.294
103.357
141.125
228.676
221.906
216.515
213.373
212.307
216.485
226.94
242.096
259.26
278.026
309.368
394.652
177.102
169.904
164.183
160.982
160.69
164.879
175.549
194.959
227.334
276.698
354.266
539.965
149.229
143.217
138.312
135.179
134.244
136.169
144.187
160.802
192.396
251.731
369.371
648.259
131.881
125.932
120.792
117.048
115.483
116.391
122.966
137.971
167.943
227.987
364.094
714.412
119.515
113.69
108.456
104.425
102.521
103.021
108.643
122.348
150.618
209.265
351.794
776.142
109.984
104.322
99.172
95.1016
92.9642
93.2889
98.198
110.798
137.621
194.159
333.179
824.077
101.923
96.5175
91.6089
87.7405
85.608
85.9697
90.3269
101.969
127.934
184.281
325.643
885.766
94.6663
89.5539
85.008
81.5763
79.9331
80.5021
84.4084
94.9755
119.718
176.015
322.667
953.738
87.9698
83.1791
79.1325
76.4109
75.5703
76.5182
80.1866
89.3906
111.875
166.878
317.864
1013.68
81.9659
77.534
74.2147
72.6641
72.9168
74.3799
77.5632
84.7359
103.204
154.118
308.632
1075.07
77.0066
73.0311
70.941
70.9553
72.144
73.8048
75.6003
79.7228
91.9066
132.447
274.97
1143.6
19.1692
17.261
16.8259
19.9952
62.2119
180.563
266.453
315.064
352.56
376.535
392.127
398.355
53.8442
58.3063
99.4088
119.542
142.46
194.396
223.699
236.24
241.924
243.616
241.62
235.352
105.723
102.621
118.232
133.092
155.458
180.066
190.141
195.339
197.316
195.914
191.181
184.423
137.157
118.155
122.439
133.289
150.764
161.309
166.738
169.161
169.287
166.339
161.51
155.525
142.654
116.238
119.734
129.049
139.766
146.655
150.363
151.918
151.309
148.248
143.588
137.927
129.239
106.428
111.797
120.165
128.771
134.711
137.92
139.115
138.208
135.212
130.738
125.311
111.837
93.2928
101.911
111.448
119.536
125.026
128.017
128.995
127.946
125.031
120.725
115.524
92.2767
81.2635
93.4555
104.019
112.118
117.222
119.898
120.526
119.304
116.409
112.209
107.198
76.9002
70.2273
86.5384
99.1561
107.011
111.298
113.218
113.182
111.697
108.719
104.539
99.6804
59.0266
63.9188
88.5172
101.727
108.031
109.791
109.192
107.67
105.208
101.782
97.5348
92.7591
61.7423
82.0219
114.647
122.349
120.03
115.108
110.364
105.477
100.767
96.2224
91.516
86.6292
253.641
237.304
230.435
196.678
161.141
135.726
119.114
108.004
99.7596
92.907
87.0741
81.7139
395.865
393.158
386.502
371.646
349.427
320.066
283.51
240.866
191.763
141.739
102.89
140.405
228.419
221.54
216.03
212.783
211.65
215.697
226.06
241.161
258.242
276.911
308.105
392.947
176.95
169.729
163.963
160.705
160.359
164.457
175.061
194.387
226.628
275.77
352.982
537.875
149.174
143.168
138.248
135.079
134.103
135.955
143.919
160.456
191.919
251.009
368.095
645.785
131.837
125.906
120.765
117.004
115.414
116.278
122.802
137.722
167.567
227.388
362.965
711.726
119.444
113.646
108.426
104.396
102.474
102.951
108.525
122.15
150.282
208.699
350.694
773.216
109.879
104.249
99.1225
95.064
92.9256
93.235
98.1063
110.629
137.318
193.608
332.137
820.97
101.787
96.4162
91.5362
87.6886
85.5655
85.9229
90.2544
101.832
127.661
183.745
324.541
882.435
94.5062
89.43
84.9166
81.5119
79.8867
80.4611
84.3576
94.8762
119.497
175.537
321.588
950.364
87.7927
83.0382
79.0271
76.3376
75.5206
76.4847
80.1574
89.3322
111.719
166.473
316.866
1010.31
81.7746
77.3788
74.0973
72.5788
72.8567
74.3561
77.5492
84.7094
103.107
153.818
307.731
1071.89
76.8
72.863
70.8129
70.8524
72.0835
73.7808
75.5877
79.7056
91.8489
132.242
274.276
1140.58
19.2798
17.3631
16.9305
20.1415
62.8554
182.067
268.439
317.396
355.18
379.358
395.058
401.306
54.1495
58.691
100.09
120.331
143.501
195.824
225.322
237.951
243.669
245.351
243.285
236.939
106.349
103.285
119.048
134.034
156.579
181.353
191.477
196.686
198.654
197.184
192.367
185.525
137.971
118.951
123.3
134.236
151.841
162.429
167.869
170.286
170.377
167.348
162.438
156.37
143.523
117.031
120.585
129.971
140.756
147.664
151.37
152.914
152.255
149.124
144.387
138.65
129.946
107.159
112.605
121.033
129.687
135.644
138.848
140.028
139.072
136.01
131.463
125.962
112.683
93.9467
102.652
112.258
120.393
125.902
128.892
129.852
128.758
125.781
121.404
116.131
92.5183
81.8334
94.1445
104.788
112.933
118.057
120.733
121.34
120.078
117.123
112.855
107.773
77.2509
70.7137
87.1508
99.8782
107.79
112.099
114.016
113.958
112.437
109.402
105.157
100.231
59.3173
64.3389
89.1174
102.441
108.796
110.562
109.953
108.409
105.909
102.432
98.1256
93.2879
62.0055
82.4056
115.222
123.04
120.759
115.849
111.094
106.169
101.425
96.8352
92.0765
87.1348
253.919
237.467
230.733
197.173
161.737
136.364
119.763
108.642
100.357
93.4723
87.5988
82.1925
398.811
396.164
389.604
374.668
352.246
322.646
285.728
242.686
193.157
142.656
103.548
141.333
229.942
223.032
217.512
214.263
213.129
217.206
227.613
242.78
259.899
278.638
309.928
395.276
177.978
170.706
164.922
161.67
161.345
165.483
176.133
195.534
227.915
277.303
354.927
540.918
149.949
143.896
138.953
135.79
134.832
136.723
144.722
161.319
192.908
252.276
370.031
649.373
132.491
126.511
121.341
117.572
115.987
116.871
123.427
138.41
168.382
228.473
364.726
715.612
120.03
114.177
108.917
104.862
102.937
103.421
109.03
122.724
150.998
209.687
352.356
777.37
110.419
104.73
99.5568
95.4656
93.3115
93.624
98.5247
111.122
137.959
194.544
333.708
825.345
102.296
96.8658
91.9358
88.0498
85.9044
86.2587
90.6129
102.259
128.246
184.653
326.173
887.117
94.9926
89.8577
85.2941
81.8491
80.1975
80.764
84.6698
95.2408
120.009
176.38
323.214
955.146
88.2604
83.4497
79.3902
76.6603
75.8155
76.7636
80.4294
89.6317
112.139
167.222
318.419
1015.12
82.2247
77.7776
74.4515
72.8958
73.1446
74.6024
77.7757
84.9353
103.411
154.398
309.136
1076.34
77.2321
73.2503
71.1603
71.1746
72.3536
73.9947
75.7544
79.8471
92.021
132.613
275.33
1144.66
19.167
17.2625
16.8186
19.9146
61.4393
179.725
266.005
314.597
352.105
376.041
391.637
397.871
53.8107
58.0853
99.2211
119.583
142.228
194.135
223.543
236.101
241.789
243.487
241.536
235.291
105.503
102.596
118.216
133.193
155.294
179.961
190.073
195.282
197.266
195.872
191.14
184.368
136.941
118.153
122.445
133.168
150.687
161.285
166.728
169.152
169.277
166.312
161.458
155.434
142.464
116.257
119.783
129.101
139.778
146.684
150.394
151.947
151.328
148.245
143.55
137.846
129.048
106.469
111.856
120.178
128.816
134.767
137.977
139.17
138.252
135.232
130.725
125.256
111.637
93.3113
101.971
111.497
119.596
125.093
128.087
129.065
128.006
125.071
120.736
115.499
92.0869
81.261
93.5044
104.077
112.183
117.292
119.971
120.599
119.371
116.462
112.238
107.197
76.7119
70.1846
86.5473
99.1964
107.067
111.36
113.286
113.251
111.763
108.776
104.578
99.6965
58.9034
63.8571
88.5109
101.755
108.081
109.849
109.251
107.731
105.268
101.836
97.5779
92.7861
61.6324
81.946
114.619
122.369
120.074
115.164
110.424
105.538
100.825
96.2758
91.5621
86.6647
253.202
237.169
230.423
196.728
161.209
135.802
119.189
108.076
99.8287
92.9681
87.1277
81.7598
395.429
392.785
386.236
371.493
349.36
320.108
283.613
241.04
191.983
141.944
103.137
140.825
228.405
221.558
216.077
212.848
211.731
215.829
226.245
241.354
258.483
277.216
308.498
393.638
176.879
169.634
163.849
160.573
160.22
164.317
174.927
194.271
226.559
275.801
353.152
538.336
149.044
143.002
138.047
134.849
133.858
135.692
143.648
160.197
191.7
250.876
368.167
646.097
131.708
125.732
120.549
116.751
115.14
115.979
122.491
137.421
167.29
227.153
362.851
711.818
119.344
113.499
108.233
104.161
102.208
102.66
108.214
121.835
149.981
208.436
350.522
773.143
109.813
104.14
98.972
94.8725
92.6976
92.9765
97.8207
110.325
137.01
193.317
331.881
820.712
101.752
96.3455
91.4281
87.543
85.3839
85.7092
90.0066
101.554
127.361
183.441
324.257
882.004
94.4956
89.3894
84.8435
81.4045
79.7445
80.2915
84.1514
94.6307
119.211
175.219
321.252
949.767
87.7995
83.0201
78.9798
76.2587
75.412
76.3515
79.9917
89.127
111.462
166.16
316.494
1009.56
81.7953
77.3774
74.0676
72.5224
72.7831
74.255
77.4253
84.5531
102.898
153.537
307.356
1071.05
76.8337
72.8733
70.7932
70.8156
72.0266
73.7078
75.506
79.6051
91.7044
132.02
273.947
1139.6
371.85
369.842
350.869
298.434
236.604
181.198
142.316
117.879
102.804
92.7187
84.928
78.5978
187.909
222.256
253.536
253.376
234.47
197.454
161.003
131.298
109.443
94.5574
84.4166
76.8321
106.921
127.617
153.079
172.611
185.58
178.505
158.606
134.045
112.826
96.3403
84.54
75.9855
77.703
90.0688
105.936
122.157
136.684
140.73
137.554
126.836
108.79
93.8787
83.1351
75.6525
73.4331
70.2851
69.9672
71.0737
72.6487
72.759
71.7878
72.3123
77.5482
98.7231
163.986
389.851
71.5392
70.1591
71.102
72.3557
71.5438
68.3449
63.3766
61.9476
63.7671
72.7024
98.4146
159.138
71.6046
71.9839
72.2902
69.9177
64.2653
56.9656
54.4562
54.7756
56.696
60.6512
70.8536
91.0316
73.9958
71.0516
64.9307
55.2351
49.886
49.8282
51.0204
53.0251
54.9247
56.9397
61.4586
68.9147
373.083
370.706
351.228
298.08
235.931
180.449
141.675
117.373
102.409
92.3797
84.6403
78.3432
188.724
223.141
254.16
253.631
234.453
196.966
160.421
130.748
108.978
94.1754
84.1108
76.559
107.389
128.181
153.603
173.159
185.755
178.41
158.163
133.57
112.373
95.9369
84.226
75.706
78.0363
90.4448
106.309
122.564
136.936
140.834
137.489
126.479
108.386
93.5053
82.8288
75.4059
73.2092
70.1083
69.8287
70.9681
72.5896
72.7202
71.7536
72.2691
77.4837
98.5927
163.643
388.631
71.3054
69.9858
70.959
72.2603
71.4617
68.2775
63.3007
61.854
63.6605
72.5726
98.225
158.756
71.3907
71.8092
72.1662
69.8018
64.1527
56.8467
54.3277
54.6407
56.5612
60.5212
70.7251
90.8626
73.7943
70.8847
64.7792
55.0904
49.7446
49.6803
50.8682
52.8766
54.7915
56.8245
61.3702
68.8276
372.021
369.817
350.587
297.832
236.008
180.783
142.138
117.885
102.933
92.8776
85.1201
78.7899
188.214
222.551
253.65
253.269
234.225
197.006
160.62
131.062
109.355
94.5884
84.5498
76.9695
107.168
127.89
153.316
172.848
185.584
178.353
158.283
133.753
112.62
96.2315
84.6078
76.0721
77.9314
90.303
106.16
122.395
136.827
140.789
137.51
126.629
108.606
93.7765
83.1376
75.7217
73.622
70.481
70.169
71.2686
72.8102
72.8666
71.8374
72.3357
77.5526
98.7536
164.104
390.506
71.6924
70.3304
71.2676
72.4842
71.6198
68.3323
63.3199
61.8866
63.7233
72.6841
98.4316
159.274
71.7259
72.1058
72.3594
69.9259
64.1784
56.8615
54.3976
54.7335
56.6728
60.6372
70.8503
91.0655
74.0433
71.0493
64.8592
55.0798
49.8074
49.773
50.9948
53.0156
54.9214
56.9414
61.4682
68.9407
373.554
371.04
351.447
298.211
236.072
180.595
141.806
117.485
102.502
92.4656
84.7096
78.4037
188.948
223.361
254.328
253.765
234.588
197.128
160.599
130.915
109.12
94.2957
84.1949
76.6353
107.471
128.29
153.711
173.243
185.842
178.522
158.327
133.75
112.547
96.0958
84.3251
75.7921
78.0882
90.5189
106.394
122.638
137.004
140.902
137.581
126.635
108.55
93.6524
82.9329
75.475
73.2561
70.1236
69.8176
70.9369
72.5494
72.687
71.7206
72.2247
77.4046
98.4428
163.379
388.037
71.3596
70.0002
70.957
72.2468
71.4605
68.3013
63.3109
61.8319
63.6049
72.4522
97.9983
158.327
71.4373
71.8331
72.1819
69.8325
64.2084
56.9023
54.3068
54.5872
56.4654
60.3904
70.5259
90.5396
73.8497
70.9365
64.8387
55.1683
49.7535
49.6504
50.8058
52.7733
54.6603
56.6666
61.1578
68.5117
74.7346
85.673
97.9786
107.49
112.322
111.464
105.211
97.8363
85.9438
76.8653
69.1558
62.2581
70.5151
79.3566
86.9616
91.0317
92.2075
89.2383
83.7585
77.7431
69.0873
59.9592
49.1399
39.1313
65.8971
72.0156
75.7771
77.586
77.7128
74.9313
70.9433
64.8896
55.6374
44.2591
31.0147
23.228
61.2534
64.9451
67.0684
68.1544
68.2378
65.6967
61.0134
53.4616
43.1926
30.9655
18.6203
14.0868
54.8916
42.2879
37.8157
38.9767
43.5769
48.9353
52.502
54.3549
55.3441
56.9403
60.7725
66.5558
31.131
25.8878
27.6626
33.7003
41.5286
48.3412
52.1982
53.5331
53.896
55.0405
58.3283
63.3981
22.4609
19.7551
23.8292
31.2216
39.3692
46.2226
50.1947
51.7289
52.2711
53.2858
55.9959
60.1746
21.7926
17.4807
21.8405
29.0277
36.6827
43.1368
47.1764
49.1014
50.0509
51.1796
53.4987
56.8761
74.9773
85.939
98.2323
107.638
112.378
111.363
104.987
97.5133
85.6322
76.5968
68.9239
62.0555
70.6738
79.514
87.0324
91.0401
92.1423
89.0495
83.5169
77.4721
68.8354
59.7244
48.9119
38.9201
65.9893
72.0501
75.754
77.5287
77.584
74.745
70.7325
64.6539
55.4126
44.0362
30.7929
23.0526
61.2883
64.9243
67.0102
68.0763
68.107
65.5305
60.8191
53.2539
42.9935
30.7707
18.4567
13.9532
54.691
42.1118
37.677
38.8416
43.4294
48.7756
52.359
54.2341
55.2576
56.8855
60.7403
66.5148
30.9526
25.7595
27.5527
33.5781
41.3811
48.1792
52.0652
53.4474
53.8562
55.0391
58.342
63.4038
22.3472
19.6679
23.7396
31.1123
39.2358
46.0744
50.0778
51.6645
52.2545
53.3114
56.042
60.2182
21.7125
17.4166
21.7677
28.9355
36.5699
43.0117
47.0796
49.0524
50.0466
51.2193
53.5627
56.9514
74.9164
85.8586
98.154
107.616
112.402
111.475
105.174
97.7718
85.9239
76.8978
69.1763
62.206
70.6655
79.5042
87.076
91.1219
92.2748
89.278
83.808
77.805
69.1555
59.9998
49.0908
38.9927
66.0267
72.1307
75.8762
77.6775
77.8019
75.0321
71.0587
64.9852
55.7006
44.2534
30.9097
23.0996
61.3697
65.0548
67.1751
68.263
68.3594
65.8273
61.1279
53.5339
43.21
30.9126
18.5253
13.9862
54.7109
42.128
37.7394
38.9408
43.5742
48.9446
52.5168
54.3652
55.3572
56.9623
60.8062
66.5981
30.9721
25.8074
27.6471
33.7118
41.5511
48.3583
52.2125
53.5467
53.9169
55.076
58.3756
63.4508
22.3937
19.7346
23.8419
31.2454
39.3895
46.2315
50.2006
51.7403
52.2924
53.3226
56.0437
60.2263
21.7828
17.4846
21.8601
29.0494
36.6967
43.1391
47.1763
49.1077
50.067
51.2099
53.5383
56.9197
75.0315
86.0011
98.2949
107.699
112.441
111.438
105.08
97.6217
85.7208
76.6581
68.9777
62.1216
70.7305
79.5721
87.092
91.1
92.2007
89.1093
83.5666
77.5087
68.8616
59.7537
48.9694
39.0065
66.0439
72.103
75.8037
77.5741
77.6159
74.761
70.7305
64.6523
55.4191
44.065
30.8581
23.1324
61.3349
64.9611
67.036
68.0922
68.0987
65.5091
60.796
53.2443
43.0024
30.8032
18.5067
14.0112
54.7918
42.1997
37.7189
38.8433
43.3729
48.6348
52.2097
54.0662
55.0718
56.6689
60.4621
66.1824
31.0469
25.8183
27.5708
33.5553
41.3052
48.0443
51.8862
53.2447
53.6382
54.7945
58.0454
63.0728
22.4176
19.7062
23.7468
31.0838
39.1606
45.9449
49.8958
51.4528
52.0273
53.0651
55.7546
59.9199
21.7734
17.4473
21.7734
28.9101
36.5004
42.8886
46.9022
48.8435
49.8227
50.9842
53.2987
56.6925
57.1506
59.6196
61.1222
61.9404
61.3034
57.4896
51.1963
42.4337
31.94
20.7553
11.2064
7.66974
54.1244
55.9152
56.9272
56.9802
54.5188
49.095
41.4657
32.2343
22.3973
13.19
6.31833
3.80694
51.6942
52.8731
53.1742
51.6856
47.4851
40.7883
32.5317
23.6466
15.2263
8.35395
4.01171
3.04269
49.0528
49.7482
49.0397
46.0378
40.5762
33.2295
25.08
17.1713
10.477
5.64559
2.88716
2.5959
45.9547
46.2273
44.4663
40.4083
34.284
26.9059
19.4098
12.7546
7.62041
4.21073
2.29174
2.23448
42.3126
42.1846
39.7252
35.1329
28.8989
21.9641
15.3978
9.9515
5.99532
3.45123
1.96201
1.85565
38.2877
37.8285
35.0585
30.3993
24.4868
18.2745
12.6814
8.23841
5.09266
3.05007
1.76361
1.49654
34.1163
33.4509
30.6831
26.3051
20.9824
15.5924
10.8769
7.2019
4.59325
2.83827
1.63088
1.15034
30.2096
29.428
26.8503
22.9494
18.3219
13.7197
9.71198
6.58846
4.32508
2.72522
1.5255
0.823485
27.2672
26.3672
24.0076
20.6146
16.6334
12.6615
9.1159
6.31748
4.22768
2.67868
1.42185
0.523621
27.4569
26.2941
23.8659
20.6792
16.9628
13.1514
9.54194
6.66533
4.46041
2.75709
1.33154
0.263404
48.2528
45.3394
40.6562
35.621
29.8159
23.3559
16.5145
11.0001
6.86667
3.77979
1.48122
0.280404
28.6539
16.5436
20.1728
26.7285
33.6885
39.6402
43.7378
46.1175
47.5697
48.9938
51.1339
53.8754
25.254
15.1062
18.4851
24.3857
30.6252
36.0677
40.1311
42.9206
44.9279
46.8163
49.0545
51.5044
21.3834
13.5385
16.8039
22.0858
27.6227
32.5587
36.4987
39.5679
42.1065
44.5389
47.0952
49.5865
18.0566
12.0097
15.1756
19.889
24.7551
29.1795
32.9189
36.1246
39.0646
41.9765
44.9076
47.4401
14.9258
10.535
13.6395
17.8395
22.0779
25.9895
29.4613
32.6597
35.812
39.0338
42.2488
44.6066
12.0427
9.13092
12.2172
15.9676
19.6365
23.0455
26.196
29.2557
32.422
35.735
38.984
41.121
9.37854
7.79936
10.9141
14.2913
17.468
20.4075
23.2061
26.0254
29.0357
32.2483
35.2755
37.2026
6.95787
6.53689
9.7174
12.8178
15.6049
18.1397
20.5903
23.1098
25.8412
28.7798
31.4688
33.1545
4.77557
5.33569
8.59663
11.5557
14.0958
16.3351
18.4912
20.7066
23.1044
25.6619
27.9768
29.4078
2.867
4.15877
7.50917
10.6178
13.1879
15.3037
17.2793
19.2389
21.2972
23.4686
25.4443
26.667
1.36522
3.00401
6.66953
10.2926
13.3532
15.8574
18.0417
20.0534
22.0184
24.0763
25.8223
27.015
0.847116
2.58831
7.21289
13.9087
20.334
25.9305
30.8538
35.399
39.6157
43.3051
46.1165
47.9472
57.1581
59.5886
61.0633
61.8657
61.1742
57.3304
51.0184
42.2572
31.7762
20.6101
11.1007
7.57975
54.1246
55.8766
56.8393
56.9041
54.3838
48.9412
41.3083
32.0914
22.2759
13.0992
6.28251
3.82052
51.6783
52.8313
53.0985
51.5748
47.3416
40.6399
32.395
23.5352
15.1449
8.30859
4.00584
3.0707
49.0051
49.6854
48.9337
45.8982
40.4231
33.0852
24.96
17.0843
10.4237
5.62433
2.88896
2.62165
45.8723
46.1283
44.324
40.2438
34.1207
26.7636
19.3008
12.6823
7.58122
4.19767
2.29348
2.25356
42.1991
42.0471
39.5511
34.948
28.7268
21.8221
15.2942
9.88551
5.9602
3.43786
1.96145
1.86876
38.149
37.6613
34.8621
30.2013
24.3096
18.1328
12.5798
8.17338
5.05632
3.03344
1.75933
1.50462
33.9638
33.2674
30.4771
26.1027
20.8048
15.452
10.7757
7.13544
4.55368
2.81754
1.62301
1.15395
30.0549
29.2411
26.6459
22.7508
18.148
13.5818
9.6109
6.52005
4.28209
2.70075
1.5149
0.824168
27.1151
26.1843
23.811
20.4229
16.4638
12.5246
9.01389
6.24701
4.18231
2.65209
1.40981
0.52272
27.2899
26.1026
23.6641
20.4815
16.7843
13.004
9.43066
6.58856
4.41104
2.72817
1.31942
0.262059
47.9136
44.9907
40.3017
35.2747
29.4983
23.0874
16.314
10.8724
6.79217
3.74123
1.46813
0.276991
28.545
16.4911
20.1149
26.6546
33.5985
39.5414
43.6602
46.0785
47.5703
49.0361
51.2068
53.9685
25.1741
15.0644
18.4411
24.3295
30.5569
35.9959
40.0715
42.8874
44.93
46.8555
49.1259
51.6031
21.3189
13.5068
16.7727
22.0458
27.5737
32.5076
36.4554
39.5431
42.111
44.5758
47.1662
49.6911
18.0077
11.9872
15.1558
19.8632
24.7228
29.1459
32.8908
36.11
39.074
42.0165
44.9829
47.5657
14.8892
10.5205
13.6296
17.826
22.0599
25.9709
29.4471
32.6561
35.8289
39.0812
42.3419
44.7564
12.0154
9.12296
12.2154
15.9643
19.6306
23.0397
26.1944
29.2632
32.4479
35.7902
39.0987
41.2897
9.35894
7.79673
10.9188
14.2961
17.4721
20.4128
23.2157
26.0438
29.0717
32.3119
35.4061
37.3855
6.94247
6.5383
9.72707
12.8288
15.6168
18.1541
20.6097
23.1383
25.8873
28.8536
31.6083
33.3457
4.76426
5.33992
8.60955
11.5714
14.1138
16.357
18.5194
20.7449
23.1609
25.7462
28.1207
29.6015
2.85797
4.16334
7.52376
10.637
13.2103
15.3319
17.3159
19.2876
21.3657
23.5686
25.59
26.8617
1.35899
3.00413
6.68459
10.3144
13.3808
15.8942
18.0917
20.1196
22.1064
24.1992
25.9873
27.2223
0.842041
2.58156
7.22864
13.9386
20.3755
25.9937
30.9521
35.5339
39.7963
43.558
46.4373
48.326
57.2649
59.7364
61.242
62.0648
61.4339
57.609
51.2791
42.4622
31.9091
20.6783
11.1314
7.60982
54.2455
56.0402
57.0527
57.1062
54.6389
49.1884
41.512
32.2261
22.3447
13.1247
6.2891
3.81558
51.8198
52.9988
53.298
51.8038
47.5871
40.8554
32.5511
23.6225
15.1795
8.31657
4.00438
3.05841
49.1662
49.8697
49.1571
46.1452
40.661
33.2777
25.0874
17.1498
10.4488
5.63081
2.88873
2.60899
46.053
46.3414
44.5758
40.5046
34.3555
26.9442
19.4169
12.7446
7.61014
4.20965
2.29729
2.24526
42.3979
42.2923
39.8257
35.2194
28.9613
21.999
15.4104
9.95357
5.99803
3.45757
1.96935
1.86407
38.364
37.9277
35.1504
30.4773
24.544
18.3095
12.7007
8.24974
5.10361
3.06037
1.77141
1.50239
34.1878
33.5419
30.768
26.377
21.0371
15.629
10.902
7.21951
4.6091
2.85055
1.63831
1.15392
30.2813
29.5132
26.9306
23.0181
18.3772
13.7579
9.74277
6.6093
4.34442
2.73784
1.53194
0.824884
27.3423
26.4506
24.0873
20.6845
16.6913
12.7044
9.15016
6.34208
4.24794
2.69128
1.42645
0.523961
27.5378
26.3853
23.9544
20.7594
17.0302
13.2036
9.58242
6.6938
4.48245
2.7686
1.33422
0.263071
48.3758
45.5015
40.8194
35.7793
29.949
23.4619
16.5844
11.047
6.89554
3.79213
1.48226
0.279694
28.6573
16.5566
20.1924
26.7463
33.6983
39.6394
43.7338
46.1174
47.5769
49.0115
51.1584
53.9019
25.2775
15.1223
18.5035
24.4009
30.6326
36.0661
40.1244
42.9139
44.9252
46.8188
49.0594
51.507
21.4061
13.5552
16.8215
22.0997
27.629
32.5565
36.4905
39.5568
42.0956
44.5282
47.0823
49.567
18.0823
12.0268
15.193
19.9025
24.7613
29.1776
32.9104
36.1115
39.0488
41.9575
44.8838
47.406
14.9499
10.5522
13.6572
17.8533
22.0847
25.9885
29.4537
32.6467
35.7948
39.0116
42.2203
44.57
12.0654
9.14785
12.2353
15.982
19.6443
23.0461
26.1904
29.2446
32.4062
35.7141
38.9569
41.0891
9.39857
7.81578
10.9327
14.3064
17.4771
20.4101
23.2032
26.0174
29.0234
32.231
35.2542
37.1786
6.97413
6.55248
9.73643
12.8338
15.6155
18.1445
20.5904
23.1055
25.8333
28.7677
31.4547
33.1394
4.78852
5.35004
8.61586
11.5728
14.1081
16.3425
18.4947
20.7065
23.1016
25.6559
27.97
29.401
2.87511
4.17122
7.52829
10.6367
13.2022
15.3142
17.2867
19.2433
21.2996
23.469
25.4443
26.6675
1.36941
3.01279
6.68818
10.3136
13.3714
15.8731
18.0549
20.0642
22.0271
24.0839
25.8297
27.0223
0.849331
2.59385
7.23185
13.9386
20.3628
25.9589
30.8812
35.4266
39.6418
43.334
46.145
47.9764
57.1842
59.5964
61.0566
61.8477
61.1392
57.2971
50.9958
42.2543
31.7937
20.6424
11.1272
7.59644
54.1193
55.8547
56.8089
56.8645
54.3421
48.9114
41.2951
32.0979
22.2969
13.1222
6.28843
3.81112
51.6464
52.793
53.0558
51.5311
47.3057
40.6199
32.3919
23.5472
15.1629
8.32046
4.00471
3.05985
48.964
49.6413
48.8904
45.8611
40.398
33.0757
24.9642
17.0972
10.4362
5.6292
2.88644
2.61295
45.8319
46.0875
44.2883
40.2176
34.107
26.7627
19.3089
12.6937
7.58925
4.19937
2.29105
2.24726
42.165
42.0152
39.5264
34.9334
28.723
21.8273
15.3041
9.89523
5.96567
3.43859
1.95953
1.8643
38.1241
37.6403
34.8486
30.1966
24.3131
18.1418
12.5903
8.1819
5.06064
3.03415
1.75824
1.50175
33.9486
33.2568
30.4732
26.1057
20.8132
15.4632
10.7863
7.14335
4.5577
2.81872
1.62285
1.15246
30.0485
29.2392
26.6491
22.759
18.1591
13.594
9.62148
6.52777
4.28636
2.70272
1.51569
0.823692
27.1164
26.1892
23.8192
20.4341
16.4764
12.5373
9.02477
6.25492
4.18707
2.65478
1.41148
0.522796
27.2987
26.1144
23.6766
20.4947
16.7983
13.0179
9.44359
6.59781
4.41712
2.73221
1.32179
0.262428
47.9466
45.0266
40.3289
35.2977
29.5236
23.1142
16.3434
10.8927
6.80515
3.74912
1.47179
0.27808
28.6329
16.5203
20.1222
26.6341
33.536
39.4263
43.4923
45.879
47.3566
48.8173
50.9699
53.7433
25.248
15.0928
18.4503
24.3138
30.5021
35.8902
39.917
42.7008
44.7298
46.654
48.9131
51.4035
21.3861
13.5337
16.7829
22.0344
27.5268
32.413
36.3152
39.3716
41.9254
44.3894
46.9727
49.5128
18.0643
12.0115
15.1661
19.8551
24.6833
29.0626
32.7651
35.9543
38.9032
41.8425
44.7977
47.4109
14.9362
10.5415
13.6391
17.8201
22.0266
25.8982
29.335
32.5153
35.6721
38.9189
42.1667
44.6111
12.0528
9.14018
12.2235
15.9595
19.6017
22.976
26.0943
29.136
32.3042
35.6377
38.9375
41.1573
9.38778
7.80994
10.9249
14.2914
17.4459
20.3556
23.1258
25.9285
28.9397
32.166
35.2605
37.2631
6.96423
6.54755
9.73091
12.8234
15.5915
18.1007
20.5271
23.0329
25.766
28.7179
31.4723
33.2298
4.77955
5.34551
8.6112
11.5647
14.0875
16.3045
18.4408
20.6463
23.0485
25.6208
27.9909
29.4891
2.868
4.1666
7.52349
10.629
13.1808
15.2766
17.2366
19.1913
21.2583
23.453
25.4623
26.7483
1.36463
3.00812
6.68283
10.3056
13.3433
15.8273
18
20.0124
21.9901
24.0785
25.858
27.1059
0.846488
2.58923
7.22626
13.932
20.3131
25.8705
30.7754
35.3226
39.5638
43.3247
46.1936
48.1241
)
;

boundaryField
{
    rotor
    {
        Cmu             0.09;
        kappa           0.41;
        E               9.8;
        type            epsilonWallFunction;
        value           nonuniform List<scalar> 
192
(
19.9421
17.8486
17.2887
20.2708
61.4435
179.577
265.962
314.635
352.253
376.287
391.938
398.196
395.828
393.334
386.961
372.423
350.235
321.034
284.387
241.684
192.447
142.294
103.357
141.125
19.1692
17.261
16.8259
19.9952
62.2119
180.563
266.453
315.064
352.56
376.535
392.127
398.355
395.865
393.158
386.502
371.646
349.427
320.066
283.51
240.866
191.763
141.739
102.89
140.405
19.2798
17.3631
16.9305
20.1415
62.8554
182.067
268.439
317.396
355.18
379.358
395.058
401.306
398.811
396.164
389.604
374.668
352.246
322.646
285.728
242.686
193.157
142.656
103.548
141.333
19.167
17.2625
16.8186
19.9146
61.4393
179.725
266.005
314.597
352.105
376.041
391.637
397.871
395.429
392.785
386.236
371.493
349.36
320.108
283.613
241.04
191.983
141.944
103.137
140.825
19.9421
54.5583
106.275
137.438
142.737
129.264
111.823
92.1786
76.7547
58.9089
61.6623
253.902
140.825
393.638
538.336
646.097
711.818
773.143
820.712
882.004
949.767
1009.56
1071.05
1139.6
19.1692
53.8442
105.723
137.157
142.654
129.239
111.837
92.2767
76.9002
59.0266
61.7423
253.641
141.125
394.652
539.965
648.259
714.412
776.142
824.077
885.766
953.738
1013.68
1075.07
1143.6
19.2798
54.1495
106.349
137.971
143.523
129.946
112.683
92.5183
77.2509
59.3173
62.0055
253.919
140.405
392.947
537.875
645.785
711.726
773.216
820.97
882.435
950.364
1010.31
1071.89
1140.58
19.167
53.8107
105.503
136.941
142.464
129.048
111.637
92.0869
76.7119
58.9034
61.6324
253.202
141.333
395.276
540.918
649.373
715.612
777.37
825.345
887.117
955.146
1015.12
1076.34
1144.66
)
;
    }
    stator
    {
        Cmu             0.09;
        kappa           0.41;
        E               9.8;
        type            epsilonWallFunction;
        value           nonuniform List<scalar> 
192
(
48.2528
45.3394
40.6562
35.621
29.8159
23.3559
16.5145
11.0001
6.86667
3.77979
1.48122
0.280404
0.847116
2.58831
7.21289
13.9087
20.334
25.9305
30.8538
35.399
39.6157
43.3051
46.1165
47.9472
47.9136
44.9907
40.3017
35.2747
29.4983
23.0874
16.314
10.8724
6.79217
3.74123
1.46813
0.276991
0.842041
2.58156
7.22864
13.9386
20.3755
25.9937
30.9521
35.5339
39.7963
43.558
46.4373
48.326
48.3758
45.5015
40.8194
35.7793
29.949
23.4619
16.5844
11.047
6.89554
3.79213
1.48226
0.279694
0.849331
2.59385
7.23185
13.9386
20.3628
25.9589
30.8812
35.4266
39.6418
43.334
46.145
47.9764
47.9466
45.0266
40.3289
35.2977
29.5236
23.1142
16.3434
10.8927
6.80515
3.74912
1.47179
0.27808
0.846488
2.58923
7.22626
13.932
20.3131
25.8705
30.7754
35.3226
39.5638
43.3247
46.1936
48.1241
28.6539
25.254
21.3834
18.0566
14.9258
12.0427
9.37854
6.95787
4.77557
2.867
1.36522
0.847116
7.66974
3.80694
3.04269
2.5959
2.23448
1.85565
1.49654
1.15034
0.823485
0.523621
0.263404
0.280404
28.545
25.1741
21.3189
18.0077
14.8892
12.0154
9.35894
6.94247
4.76426
2.85797
1.35899
0.842041
7.57975
3.82052
3.0707
2.62165
2.25356
1.86876
1.50462
1.15395
0.824168
0.52272
0.262059
0.276991
28.6573
25.2775
21.4061
18.0823
14.9499
12.0654
9.39857
6.97413
4.78852
2.87511
1.36941
0.849331
7.60982
3.81558
3.05841
2.60899
2.24526
1.86407
1.50239
1.15392
0.824884
0.523961
0.263071
0.279694
28.6329
25.248
21.3861
18.0643
14.9362
12.0528
9.38778
6.96423
4.77955
2.868
1.36463
0.846488
7.59644
3.81112
3.05985
2.61295
2.24726
1.8643
1.50175
1.15246
0.823692
0.522796
0.262428
0.27808
)
;
    }
    front
    {
        type            empty;
    }
    back
    {
        type            empty;
    }
}


// ************************************************************************* //
