/*--------------------------------*- C++ -*----------------------------------*\
| =========                 |                                                 |
| \\      /  F ield         | OpenFOAM: The Open Source CFD Toolbox           |
|  \\    /   O peration     | Version:  4.0                                   |
|   \\  /    A nd           | Web:      www.OpenFOAM.org                      |
|    \\/     M anipulation  |                                                 |
\*---------------------------------------------------------------------------*/
FoamFile
{
    version     2.0;
    format      ascii;
    class       volScalarField;
    location    "100";
    object      k;
}
// * * * * * * * * * * * * * * * * * * * * * * * * * * * * * * * * * * * * * //

dimensions      [0 2 -2 0 0 0 0];

internalField   nonuniform List<scalar> 
3072
(
0.10591
0.146942
0.143555
0.158293
0.324235
0.677162
0.887536
0.993558
1.07181
1.11995
1.15097
1.16316
0.222301
0.39896
0.497484
0.544844
0.681749
0.922303
1.15802
1.38307
1.59209
1.77417
1.92483
2.03857
0.368817
0.690196
0.752086
0.885837
1.11156
1.39077
1.66971
1.91561
2.11702
2.2706
2.37775
2.43002
0.465688
0.901262
0.999677
1.16336
1.41081
1.68358
1.93982
2.15602
2.32502
2.44714
2.52002
2.54503
0.505226
1.00114
1.14774
1.33437
1.58508
1.84331
2.07639
2.26847
2.41376
2.51448
2.56402
2.57668
0.497507
1.00227
1.21563
1.42787
1.67273
1.91588
2.13065
2.3027
2.42969
2.5136
2.55175
2.55719
0.473618
0.979144
1.23176
1.46654
1.70651
1.93512
2.13201
2.29131
2.40681
2.47727
2.50384
2.50068
0.434348
0.932924
1.22695
1.47478
1.7127
1.92629
2.10837
2.24892
2.34722
2.40394
2.42436
2.41582
0.400438
0.854675
1.21796
1.48181
1.71079
1.89941
2.056
2.17714
2.26141
2.30878
2.3228
2.31063
0.350603
0.802221
1.24343
1.51703
1.72237
1.87634
1.99875
2.09523
2.16225
2.19854
2.20524
2.19035
0.376834
0.905484
1.41046
1.66052
1.79661
1.89236
1.96028
2.01834
2.06052
2.08181
2.07967
2.0618
1.01515
1.57691
1.99077
2.05001
2.0145
1.97306
1.96197
1.96089
1.96676
1.9658
1.95375
1.9316
1.15849
1.15347
1.14093
1.11231
1.06813
1.00829
0.930628
0.835694
0.718779
0.58824
0.476209
0.391985
2.11131
2.14551
2.13797
2.0961
2.04174
1.97274
1.88441
1.76835
1.60645
1.31284
0.969691
0.835853
2.43894
2.42004
2.38296
2.33705
2.28861
2.23754
2.17863
2.09963
1.98767
1.77943
1.33909
1.09912
2.54329
2.51771
2.47953
2.4353
2.39213
2.35442
2.32062
2.28358
2.22648
2.11061
1.769
1.31808
2.56362
2.53094
2.48787
2.44224
2.40247
2.37567
2.36344
2.36967
2.37403
2.33902
2.1053
1.48556
2.53602
2.49662
2.44799
2.40029
2.36338
2.34638
2.35325
2.39845
2.47985
2.52848
2.43083
1.65185
2.47287
2.42888
2.3774
2.3283
2.29326
2.2832
2.31072
2.39283
2.53424
2.67979
2.70725
1.80218
2.38471
2.33827
2.28542
2.23619
2.20277
2.19895
2.24083
2.35248
2.55207
2.80481
2.94148
1.97618
2.2786
2.23056
2.17831
2.13162
2.10288
2.10488
2.15325
2.28356
2.5368
2.89706
3.15939
2.16412
2.15829
2.11087
2.0623
2.02227
2.00213
2.00934
2.05954
2.192
2.47479
2.93235
3.38976
2.34402
2.02964
1.98533
1.94528
1.9182
1.9113
1.92374
1.97089
2.08834
2.35827
2.8931
3.61086
2.53128
1.8987
1.86199
1.83732
1.8313
1.83799
1.85443
1.8881
1.97298
2.18812
2.7056
3.67313
2.73381
0.102851
0.143597
0.140986
0.156815
0.326797
0.679545
0.88849
0.994328
1.07233
1.12039
1.1513
1.16335
0.22026
0.394872
0.494418
0.545966
0.684068
0.925519
1.16128
1.38647
1.59556
1.77754
1.92791
2.04103
0.367506
0.689685
0.75268
0.888405
1.11457
1.39455
1.67337
1.91921
2.12053
2.27407
2.38117
2.43296
0.464998
0.900848
1.00026
1.1655
1.4136
1.68695
1.9433
2.15948
2.3285
2.45075
2.52372
2.54857
0.505023
1.001
1.14827
1.33633
1.58775
1.84634
2.07952
2.27158
2.41693
2.5178
2.56754
2.58023
0.497464
1.00237
1.21629
1.42962
1.67511
1.9188
2.13452
2.30545
2.43243
2.51655
2.55487
2.5604
0.473708
0.979406
1.23256
1.46809
1.70861
1.93751
2.13518
2.29372
2.40911
2.47957
2.50627
2.50322
0.434612
0.933318
1.22785
1.47616
1.71436
1.92828
2.11052
2.25072
2.3489
2.40565
2.42613
2.41769
0.400922
0.855581
1.21896
1.48297
1.71203
1.90079
2.05738
2.17844
2.26262
2.30995
2.32398
2.31183
0.351041
0.802523
1.24407
1.51759
1.72302
1.87683
1.99945
2.09597
2.16296
2.19919
2.20585
2.19092
0.377141
0.905432
1.40988
1.65962
1.79576
1.89178
1.95993
2.01826
2.06059
2.08186
2.07967
2.06175
1.01447
1.57584
1.98774
2.04621
2.01079
1.97017
1.9597
1.9594
1.96592
1.96513
1.95309
1.93093
1.15834
1.15286
1.13977
1.11057
1.06628
1.0061
0.928582
0.833713
0.717004
0.586669
0.474763
0.390655
2.11274
2.14559
2.13669
2.09368
2.03847
1.96881
1.88023
1.76451
1.60284
1.30953
0.966986
0.833436
2.44141
2.42133
2.38308
2.33594
2.28638
2.23451
2.17521
2.09581
1.98365
1.77557
1.33581
1.09626
2.54644
2.52008
2.48093
2.4356
2.39141
2.35298
2.31849
2.28009
2.22258
2.10637
1.76472
1.3147
2.56702
2.53388
2.49008
2.44353
2.40285
2.37523
2.36225
2.36672
2.37
2.33456
2.10038
1.48182
2.53915
2.49953
2.45047
2.40216
2.36446
2.34673
2.35246
2.39632
2.47631
2.52375
2.4251
1.64771
2.47546
2.43137
2.37964
2.33013
2.29447
2.28373
2.3102
2.39088
2.53068
2.67442
2.70082
1.79769
2.38662
2.34015
2.28717
2.23769
2.20387
2.19949
2.24045
2.35072
2.54849
2.79918
2.93461
1.97128
2.27982
2.2318
2.1795
2.1327
2.10373
2.10539
2.15307
2.28213
2.5335
2.89157
3.15193
2.15912
2.15885
2.11148
2.06294
2.02292
2.00272
2.00978
2.05956
2.19106
2.47209
2.92712
3.3822
2.33891
2.02957
1.98532
1.94537
1.91842
1.91158
1.92404
1.97098
2.08778
2.35626
2.88887
3.60356
2.5264
1.89802
1.86139
1.83687
1.83103
1.83795
1.85449
1.88798
1.97241
2.18662
2.70222
3.66654
2.72914
0.103256
0.144159
0.141566
0.157569
0.32912
0.683401
0.892967
0.999273
1.07766
1.12596
1.15698
1.16908
0.221101
0.396437
0.496506
0.548222
0.687296
0.929932
1.1667
1.39284
1.60273
1.7853
1.93617
2.04976
0.36893
0.692446
0.755783
0.892196
1.11941
1.40066
1.6806
1.92728
2.12912
2.28292
2.38998
2.44173
0.466859
0.90455
1.00438
1.17036
1.41947
1.69397
1.95122
2.16804
2.33742
2.45971
2.53152
2.55572
0.507106
1.00528
1.1531
1.34186
1.59424
1.85382
2.08779
2.28035
2.42588
2.52659
2.57569
2.58794
0.499489
1.00662
1.22142
1.43554
1.68197
1.92657
2.14303
2.31435
2.44143
2.52524
2.56301
2.56805
0.475143
0.982627
1.23773
1.47421
1.71565
1.94544
2.14375
2.30264
2.41806
2.48812
2.51431
2.51065
0.436778
0.939136
1.23319
1.48245
1.72157
1.93627
2.11911
2.2596
2.35774
2.41411
2.43406
2.42496
0.402465
0.85716
1.22385
1.4892
1.71931
1.90881
2.06592
2.18719
2.2713
2.31828
2.33177
2.31903
0.352065
0.805898
1.24906
1.52389
1.73027
1.88476
2.00781
2.10451
2.17143
2.20735
2.21348
2.19806
0.378153
0.90827
1.41457
1.66571
1.80279
1.89952
1.96802
2.0265
2.06879
2.08976
2.08718
2.06883
1.01499
1.5774
1.99076
2.05125
2.01685
1.97722
1.96724
1.96715
1.97375
1.97281
1.9605
1.93787
1.16412
1.15879
1.14591
1.1166
1.07204
1.01153
0.933444
0.837906
0.720461
0.589183
0.476771
0.392362
2.12196
2.15532
2.14679
2.10411
2.04903
1.97928
1.8902
1.77342
1.61055
1.31593
0.971185
0.8367
2.45028
2.43058
2.39274
2.34608
2.29693
2.24523
2.18576
2.10584
1.99247
1.7832
1.34156
1.10036
2.55371
2.52827
2.48948
2.44458
2.40085
2.36273
2.32825
2.28964
2.23159
2.11471
1.77174
1.31952
2.57436
2.54121
2.4975
2.45126
2.41102
2.38382
2.37102
2.37538
2.37875
2.34318
2.10836
1.48716
2.54625
2.50621
2.4569
2.40853
2.37102
2.35352
2.35971
2.40415
2.48476
2.53261
2.43396
1.65353
2.48223
2.43757
2.38537
2.33558
2.29986
2.28928
2.31621
2.39775
2.53867
2.68369
2.71052
1.80399
2.3932
2.34605
2.29247
2.24254
2.20846
2.20412
2.24548
2.35671
2.55615
2.80873
2.94492
1.97816
2.28628
2.23751
2.18457
2.13721
2.10782
2.10937
2.15726
2.28715
2.54034
2.90086
3.16314
2.16624
2.16528
2.11711
2.06793
2.02731
2.00656
2.01336
2.06304
2.19504
2.47775
2.93601
3.39383
2.34625
2.03595
1.99101
1.95044
1.92287
1.91542
1.92732
1.97382
2.09068
2.36038
2.89609
3.61453
2.53332
1.90433
1.86714
1.84208
1.83565
1.84164
1.85716
1.89011
1.9743
2.18918
2.70735
3.67617
2.73556
0.102842
0.143587
0.140941
0.156413
0.324064
0.677417
0.887508
0.993366
1.07142
1.11942
1.15036
1.16244
0.220171
0.393931
0.493714
0.54523
0.682136
0.923049
1.15868
1.3836
1.59249
1.77444
1.92488
2.03815
0.367026
0.688829
0.751266
0.886022
1.11164
1.39125
1.67008
1.91587
2.11723
2.27071
2.37762
2.42925
0.46454
0.899678
0.998467
1.16293
1.41071
1.68381
1.9401
2.15634
2.32545
2.44759
2.51935
2.54353
0.504595
1.00011
1.14663
1.33385
1.58496
1.84346
2.07664
2.26878
2.41415
2.51485
2.56402
2.57634
0.497001
1.00157
1.21479
1.42736
1.67255
1.91591
2.13077
2.30287
2.42994
2.51382
2.55178
2.557
0.473143
0.978569
1.2311
1.46603
1.70621
1.93495
2.13193
2.29129
2.40678
2.47713
2.50361
2.50027
0.434068
0.93249
1.2264
1.47422
1.71216
1.92591
2.10803
2.2485
2.34674
2.40341
2.42375
2.41509
0.40029
0.854691
1.21753
1.48113
1.71
1.89862
2.05518
2.1763
2.26053
2.30786
2.32183
2.30958
0.350569
0.801937
1.24276
1.51595
1.72117
1.8749
1.99741
2.09393
2.16097
2.19725
2.20392
2.18897
0.376694
0.904945
1.4089
1.65841
1.79437
1.89018
1.95819
2.01645
2.05877
2.08012
2.07799
2.0601
1.01319
1.5751
1.98736
2.04588
2.01032
1.96931
1.95868
1.95813
1.96441
1.96359
1.95165
1.92959
1.15754
1.15218
1.1393
1.11032
1.06621
1.00624
0.928856
0.834121
0.717552
0.587224
0.475501
0.391411
2.11014
2.14332
2.13479
2.0921
2.03729
1.968
1.87966
1.76385
1.60247
1.30992
0.967754
0.834377
2.43777
2.4179
2.37985
2.33303
2.28386
2.23228
2.17308
2.09408
1.98229
1.77473
1.33582
1.09685
2.54149
2.51588
2.47685
2.43165
2.38756
2.34911
2.31479
2.27745
2.22035
2.10484
1.76431
1.31509
2.56282
2.52957
2.48563
2.43898
2.39819
2.37041
2.35756
2.36309
2.36723
2.33224
2.09944
1.48191
2.53537
2.49542
2.44603
2.39742
2.35944
2.34155
2.34731
2.39159
2.47217
2.52069
2.4237
1.64757
2.47214
2.42767
2.37556
2.32565
2.2896
2.27858
2.30491
2.38572
2.52601
2.67098
2.69897
1.79727
2.38375
2.33695
2.2836
2.23372
2.19947
2.19474
2.23539
2.34555
2.54361
2.79518
2.93229
1.9706
2.27737
2.22907
2.17645
2.12928
2.09988
2.1012
2.14846
2.27717
2.52848
2.8871
3.14926
2.15817
2.15679
2.10919
2.06037
2.02002
1.99943
2.00619
2.05555
2.18662
2.46718
2.92241
3.37923
2.3377
2.02787
1.98343
1.94322
1.91598
1.90889
1.92106
1.9677
2.08411
2.35192
2.88416
3.60053
2.52501
1.89665
1.85983
1.83506
1.82902
1.83569
1.85218
1.88561
1.96981
2.18337
2.69793
3.66358
2.7275
2.99738
2.98237
2.86397
2.63119
2.36838
2.14228
1.99732
1.92576
1.88664
1.8601
1.83393
1.80344
2.62263
2.64332
2.64231
2.57712
2.42605
2.22389
2.03252
1.90201
1.81875
1.7644
1.7227
1.68457
2.23791
2.27014
2.29681
2.30982
2.27348
2.17189
2.00636
1.86332
1.75353
1.67559
1.62181
1.57923
1.97865
2.02018
2.05226
2.06254
2.04607
2.00744
1.91166
1.77292
1.66537
1.58735
1.53847
1.51099
1.77165
1.75037
1.75024
1.76707
1.78287
1.78692
1.7942
1.83749
1.97662
2.36084
3.22822
3.16807
1.66034
1.66216
1.68942
1.71634
1.7108
1.6879
1.67426
1.69842
1.7872
2.01007
2.55159
2.66207
1.57485
1.60044
1.63638
1.62704
1.58533
1.57059
1.58819
1.63431
1.70132
1.80667
2.07703
2.21385
1.53163
1.53275
1.5003
1.46113
1.47133
1.51972
1.58466
1.64162
1.68257
1.72349
1.83749
1.93021
2.99998
2.98251
2.86182
2.62719
2.3631
2.13655
1.99323
1.92287
1.88468
1.85862
1.83258
1.80217
2.62569
2.64518
2.64271
2.57582
2.4221
2.21828
2.02689
1.89753
1.81546
1.76188
1.72054
1.68261
2.24072
2.27232
2.29815
2.3099
2.27211
2.16746
2.00078
1.85815
1.74909
1.67199
1.61878
1.57669
1.98089
2.0219
2.05338
2.06236
2.04496
2.00511
1.90652
1.76748
1.66047
1.58318
1.53502
1.5084
1.77039
1.74922
1.74927
1.76643
1.78237
1.78638
1.79344
1.83639
1.97498
2.35825
3.22367
3.16389
1.65855
1.66055
1.68814
1.71529
1.70964
1.68652
1.6725
1.69644
1.78505
2.00764
2.54855
2.65928
1.57266
1.59866
1.63481
1.62532
1.58323
1.56824
1.58574
1.63183
1.69905
1.80464
2.07522
2.21233
1.52933
1.53044
1.4978
1.45845
1.46857
1.51688
1.58191
1.63928
1.68086
1.72237
1.83701
1.92998
2.99682
2.98097
2.86171
2.62874
2.36663
2.14192
1.99985
1.92987
1.89189
1.86584
1.83964
1.80891
2.62339
2.64382
2.64228
2.57639
2.42429
2.22193
2.03195
1.90347
1.82189
1.76851
1.72719
1.68914
2.23946
2.27162
2.29813
2.31064
2.27361
2.17054
2.00529
1.86347
1.7549
1.67811
1.6251
1.58288
1.98081
2.02211
2.05398
2.06368
2.04681
2.00758
1.91064
1.77256
1.66607
1.58911
1.54122
1.51361
1.7767
1.75499
1.75456
1.77072
1.78558
1.78802
1.79481
1.83743
1.97638
2.36119
3.22961
3.16886
1.66468
1.66631
1.693
1.71864
1.71193
1.68758
1.67352
1.69774
1.78684
2.01017
2.55231
2.66266
1.57835
1.60365
1.63813
1.62763
1.58463
1.5698
1.58744
1.63389
1.7015
1.80715
2.07792
2.2147
1.53331
1.53316
1.49974
1.45986
1.47041
1.51935
1.58481
1.64225
1.68344
1.72457
1.83886
1.93159
2.99966
2.98172
2.86135
2.62722
2.36334
2.13682
1.99301
1.92228
1.88377
1.85756
1.83154
1.80115
2.62595
2.6451
2.64258
2.57589
2.4226
2.2193
2.0278
1.8979
1.81535
1.76148
1.72002
1.68198
2.2415
2.27294
2.29857
2.31026
2.27263
2.16859
2.00204
1.8591
1.74975
1.67229
1.61881
1.5764
1.98221
2.0231
2.05435
2.06315
2.04579
2.00615
1.90804
1.7688
1.66147
1.58381
1.53521
1.50821
1.76931
1.7479
1.74775
1.7647
1.78072
1.785
1.79209
1.83491
1.97291
2.35511
3.22019
3.16142
1.6577
1.65952
1.68686
1.71417
1.70886
1.68618
1.67194
1.69553
1.7834
2.00502
2.5448
2.65616
1.57214
1.59785
1.63423
1.62509
1.58346
1.56812
1.58533
1.63074
1.6971
1.80202
2.07148
2.20871
1.5292
1.53061
1.49832
1.45911
1.46892
1.5165
1.58059
1.63708
1.67813
1.7192
1.83302
1.92586
1.81984
1.84534
1.85475
1.83858
1.7937
1.72626
1.63817
1.53524
1.47669
1.42971
1.3789
1.33417
1.66086
1.66941
1.66175
1.63088
1.57813
1.51493
1.45062
1.39319
1.33486
1.23836
1.0968
0.951385
1.52107
1.51777
1.50174
1.4701
1.42853
1.38837
1.34701
1.28682
1.18248
1.01435
0.784085
0.593037
1.41023
1.40286
1.38801
1.36609
1.34216
1.31305
1.25924
1.16457
1.01393
0.798331
0.513505
0.317967
1.30668
1.22815
1.22224
1.32874
1.47141
1.59043
1.65667
1.67978
1.67894
1.68689
1.7397
1.78565
0.889373
0.933523
1.07275
1.2733
1.47019
1.60487
1.66096
1.66072
1.6273
1.60951
1.6242
1.64318
0.553322
0.789887
1.00023
1.22893
1.43471
1.56909
1.61924
1.61277
1.56771
1.52976
1.51844
1.51758
0.368384
0.718268
0.947551
1.17537
1.37512
1.50392
1.55184
1.54636
1.50028
1.45427
1.42858
1.41503
1.82014
1.84528
1.85413
1.83683
1.79092
1.72217
1.63241
1.53038
1.47262
1.42634
1.37577
1.33116
1.65971
1.66801
1.65969
1.62791
1.57425
1.51025
1.44546
1.38931
1.33117
1.23474
1.0929
0.947245
1.51884
1.51548
1.49884
1.46651
1.42444
1.38409
1.34279
1.28329
1.17881
1.01048
0.779719
0.58885
1.40775
1.40024
1.38486
1.36256
1.3385
1.30932
1.25555
1.16123
1.01046
0.794816
0.50983
0.314374
1.30338
1.22483
1.21922
1.32589
1.46854
1.58797
1.65493
1.67837
1.67831
1.68735
1.74065
1.78678
0.885168
0.930447
1.07
1.2705
1.46736
1.60274
1.66004
1.66078
1.62813
1.61121
1.62644
1.64563
0.549771
0.787485
0.997798
1.22638
1.43221
1.56734
1.61833
1.61302
1.56919
1.5323
1.52163
1.52096
0.366886
0.716406
0.945474
1.17315
1.37299
1.50256
1.5512
1.5468
1.50208
1.45721
1.43218
1.4189
1.82152
1.84689
1.85602
1.83936
1.79418
1.72636
1.63786
1.53645
1.47882
1.43211
1.38044
1.3337
1.66229
1.67079
1.6628
1.63167
1.57885
1.51578
1.45193
1.39582
1.3373
1.23988
1.09632
0.948519
1.52233
1.51916
1.5029
1.47123
1.42991
1.39026
1.34942
1.28958
1.18437
1.01479
0.782325
0.589892
1.41175
1.40444
1.38948
1.36775
1.34423
1.3155
1.26176
1.16676
1.01497
0.798043
0.511869
0.3153
1.30388
1.22554
1.22098
1.32867
1.4719
1.59121
1.6576
1.68088
1.68028
1.68851
1.7415
1.78737
0.885459
0.931748
1.07262
1.27404
1.47115
1.6059
1.66201
1.66195
1.62889
1.61143
1.62627
1.64512
0.550449
0.789218
1.00068
1.22986
1.43572
1.57009
1.62026
1.61398
1.56931
1.53171
1.52051
1.51951
0.367779
0.718263
0.948188
1.17625
1.376
1.50478
1.55272
1.54743
1.50175
1.45608
1.43047
1.41677
1.82166
1.84661
1.85524
1.83783
1.79206
1.72354
1.63394
1.53114
1.47286
1.42624
1.37581
1.33171
1.66142
1.66949
1.66093
1.6291
1.57546
1.51133
1.44611
1.38912
1.33086
1.23465
1.09351
0.948758
1.52054
1.51692
1.50006
1.46755
1.42522
1.3844
1.34254
1.28266
1.1784
1.01057
0.780676
0.59053
1.40922
1.40143
1.38575
1.3631
1.33858
1.30894
1.25489
1.16056
1.01016
0.794996
0.510544
0.315569
1.30477
1.2263
1.22021
1.32609
1.46783
1.58601
1.65181
1.67512
1.6749
1.68342
1.73622
1.78315
0.8872
0.931895
1.07075
1.27043
1.46632
1.60021
1.65606
1.65629
1.62395
1.60693
1.62218
1.64238
0.551602
0.788669
0.998427
1.22628
1.43106
1.56463
1.61456
1.60858
1.5648
1.52828
1.51812
1.51839
0.367835
0.717397
0.946105
1.17313
1.37191
1.49984
1.54744
1.54235
1.49762
1.45334
1.42901
1.41635
1.3345
1.32912
1.32032
1.30807
1.28559
1.23919
1.15415
1.02382
0.84411
0.619862
0.352481
0.129248
1.29162
1.2902
1.28381
1.26604
1.22539
1.14989
1.03277
0.876311
0.685882
0.476495
0.257201
0.0800864
1.26982
1.26804
1.25352
1.21876
1.15276
1.04829
0.906916
0.737708
0.553352
0.373522
0.207848
0.0697988
1.2513
1.24429
1.2166
1.16132
1.07093
0.944279
0.789543
0.620379
0.453156
0.304975
0.179459
0.0642124
1.22373
1.21007
1.16883
1.09518
0.98626
0.846572
0.68892
0.528969
0.382346
0.259929
0.159813
0.0593561
1.18032
1.16107
1.10928
1.02271
0.903082
0.759384
0.606844
0.46059
0.332887
0.228885
0.144147
0.053578
1.11761
1.0952
1.03745
0.944765
0.822436
0.682263
0.539859
0.40842
0.296416
0.205194
0.129936
0.04741
1.03418
1.01124
0.952455
0.860386
0.742443
0.611418
0.481895
0.364956
0.266009
0.184254
0.115397
0.0406621
0.928789
0.907478
0.852086
0.766528
0.658842
0.541147
0.42607
0.323288
0.235991
0.162463
0.0989128
0.0332668
0.796936
0.778644
0.730262
0.656268
0.564152
0.463485
0.364624
0.276381
0.200955
0.13621
0.0787177
0.0251723
0.618725
0.604496
0.566561
0.509395
0.440173
0.361952
0.283709
0.212932
0.152306
0.0997364
0.0514252
0.0163309
0.280188
0.269045
0.25016
0.229046
0.203572
0.173186
0.137864
0.105187
0.076847
0.0517056
0.0278369
0.00926561
0.303618
0.674164
0.896046
1.11144
1.29999
1.42382
1.47286
1.47313
1.43364
1.38942
1.35955
1.34169
0.285136
0.633129
0.840625
1.04047
1.21604
1.33575
1.38767
1.39599
1.36998
1.33574
1.311
1.29622
0.261093
0.589065
0.781304
0.965252
1.12706
1.24269
1.29961
1.31706
1.30773
1.28888
1.27577
1.26925
0.23824
0.541974
0.718938
0.887676
1.03554
1.14647
1.20906
1.23688
1.24383
1.24236
1.24394
1.24701
0.214265
0.491751
0.654459
0.809005
0.943347
1.04788
1.11425
1.15248
1.17445
1.1904
1.2054
1.21665
0.189428
0.438549
0.588332
0.729813
0.851558
0.947974
1.01573
1.06164
1.09629
1.12669
1.153
1.17091
0.163497
0.382208
0.520467
0.649893
0.759904
0.84795
0.914815
0.965728
1.00887
1.04925
1.08332
1.10622
0.136583
0.322469
0.450004
0.568086
0.667287
0.747123
0.811172
0.863843
0.911589
0.957063
0.995128
1.0213
0.108312
0.258676
0.374966
0.481907
0.571168
0.642919
0.702755
0.754402
0.803189
0.848922
0.8874
0.915127
0.0785812
0.18985
0.291533
0.386172
0.465852
0.529633
0.584295
0.632774
0.678395
0.720594
0.756021
0.783508
0.0489687
0.110982
0.189516
0.269142
0.337702
0.391959
0.438674
0.480251
0.518339
0.553482
0.583368
0.60721
0.0192623
0.0400659
0.0785462
0.121943
0.157004
0.184489
0.2071
0.227026
0.244791
0.260117
0.271451
0.278738
1.33211
1.32662
1.31743
1.30492
1.28229
1.23576
1.15079
1.02075
0.84113
0.617185
0.350482
0.128204
1.28953
1.28799
1.28112
1.26303
1.22221
1.14661
1.02967
0.873596
0.683542
0.474821
0.25669
0.0802551
1.26786
1.26585
1.25073
1.21563
1.1495
1.04505
0.904014
0.735351
0.551633
0.372671
0.208085
0.0702217
1.24918
1.24183
1.21346
1.15788
1.06744
0.940977
0.786746
0.618288
0.451879
0.304592
0.179897
0.0646201
1.22126
1.20714
1.16522
1.09132
0.982464
0.84313
0.68613
0.527008
0.38128
0.259714
0.160239
0.0596803
1.17747
1.15764
1.1052
1.01844
0.898978
0.755773
0.603996
0.458637
0.331848
0.228649
0.144466
0.0538111
1.11445
1.09138
1.033
0.940177
0.818103
0.678523
0.536937
0.406412
0.295299
0.204839
0.130105
0.047563
1.03088
1.0072
0.947855
0.855676
0.738036
0.607648
0.478949
0.362898
0.264792
0.183754
0.115416
0.0407287
0.925589
0.9035
0.847599
0.761957
0.654566
0.537501
0.423201
0.321248
0.234721
0.161849
0.098812
0.033268
0.794031
0.775022
0.726209
0.652139
0.560271
0.460159
0.361994
0.274484
0.199734
0.135559
0.07855
0.0251266
0.616385
0.601579
0.563321
0.506121
0.43703
0.359245
0.281565
0.211381
0.1513
0.0991735
0.0512666
0.0162641
0.278851
0.26765
0.248709
0.22758
0.202153
0.171885
0.136773
0.10439
0.076301
0.0513609
0.0276772
0.00919421
0.302847
0.672668
0.894307
1.10958
1.29824
1.42281
1.47252
1.47364
1.4355
1.39236
1.36318
1.34565
0.284543
0.631901
0.839211
1.03898
1.21466
1.33503
1.38757
1.39656
1.37172
1.33846
1.31438
1.29998
0.260571
0.588072
0.780199
0.96412
1.12602
1.24218
1.2997
1.31768
1.30928
1.29146
1.27897
1.27279
0.23782
0.541194
0.718118
0.886871
1.03482
1.14616
1.20927
1.23753
1.24521
1.2453
1.24733
1.25061
0.213918
0.491162
0.653888
0.80849
0.942935
1.04771
1.11445
1.15305
1.17562
1.19261
1.20845
1.22016
0.189152
0.438122
0.587972
0.729539
0.85139
0.94798
1.01601
1.06227
1.0975
1.1288
1.15605
1.17454
0.163274
0.381909
0.520274
0.649809
0.75993
0.848136
0.91523
0.966442
1.01009
1.0514
1.0865
1.11005
0.136393
0.322257
0.44993
0.56814
0.667449
0.74743
0.811674
0.864616
0.912792
0.959334
0.998384
1.02524
0.108134
0.258503
0.374961
0.482046
0.571404
0.643281
0.703296
0.755209
0.804437
0.851213
0.890622
0.919019
0.0784221
0.189663
0.291546
0.386336
0.466097
0.529962
0.58481
0.633587
0.67971
0.722767
0.759019
0.787123
0.0488023
0.110737
0.1895
0.269283
0.337887
0.392226
0.439164
0.481097
0.519545
0.555305
0.585808
0.610217
0.0191775
0.0400041
0.0786739
0.12213
0.157218
0.184787
0.207544
0.227613
0.245555
0.261157
0.272757
0.280359
1.33624
1.33095
1.32214
1.31016
1.28795
1.24161
1.15625
1.0252
0.844339
0.619161
0.351536
0.128513
1.2935
1.29225
1.28586
1.26828
1.22772
1.152
1.03431
0.876999
0.685642
0.475855
0.256986
0.0801843
1.27169
1.27019
1.25564
1.22097
1.15489
1.05004
0.907989
0.738007
0.55306
0.373222
0.208015
0.0700307
1.25308
1.24645
1.2187
1.16342
1.07283
0.945721
0.79035
0.620597
0.453082
0.305023
0.179779
0.0644153
1.2254
1.21219
1.17087
1.09715
0.987973
0.847829
0.689648
0.529304
0.382547
0.260222
0.160195
0.0595362
1.18192
1.16312
1.11125
1.02457
0.904655
0.760554
0.607612
0.461089
0.333318
0.229317
0.144539
0.05373
1.11919
1.09718
1.03935
0.946517
0.823925
0.683401
0.540706
0.409051
0.296993
0.20568
0.130301
0.0475246
1.03577
1.01314
0.954294
0.862056
0.743878
0.612542
0.482801
0.36566
0.266647
0.184733
0.115704
0.0407376
0.930414
0.909297
0.853851
0.768122
0.660242
0.542214
0.427022
0.323956
0.236649
0.162866
0.0991393
0.0332965
0.798499
0.780343
0.73191
0.657761
0.565455
0.464508
0.365489
0.277016
0.2015
0.136529
0.0788388
0.0251729
0.620078
0.605931
0.56794
0.510683
0.441287
0.362825
0.284405
0.213423
0.152677
0.0999182
0.051438
0.0163078
0.280726
0.269673
0.25083
0.229715
0.204169
0.173693
0.138222
0.105462
0.0770386
0.0517977
0.0278345
0.00924207
0.303659
0.674445
0.89671
1.11221
1.30072
1.42452
1.47358
1.474
1.43486
1.39091
1.36108
1.34306
0.285322
0.633551
0.841266
1.04115
1.21665
1.33631
1.38824
1.39664
1.37089
1.33683
1.31207
1.2971
0.26129
0.589542
0.78192
0.965867
1.12759
1.24314
1.30003
1.31752
1.30834
1.28957
1.2764
1.26968
0.23848
0.54248
0.719536
0.888248
1.03601
1.14683
1.20936
1.23718
1.24419
1.24274
1.24421
1.24711
0.214512
0.492267
0.655044
0.809546
0.943774
1.04818
1.11447
1.15268
1.17468
1.19058
1.20544
1.21656
0.189685
0.439063
0.588904
0.730333
0.851957
0.948244
1.0159
1.06177
1.0964
1.12674
1.15294
1.17076
0.163745
0.382702
0.52102
0.650392
0.760282
0.848199
0.914965
0.96581
1.00892
1.04924
1.08324
1.10609
0.136814
0.322923
0.450526
0.568562
0.667648
0.747362
0.81132
0.863919
0.91163
0.95706
0.995088
1.02123
0.108511
0.259064
0.375438
0.48235
0.571506
0.643154
0.702909
0.754492
0.803244
0.848954
0.887417
0.915134
0.0787462
0.190141
0.291928
0.386563
0.466157
0.529861
0.584454
0.632888
0.678477
0.720665
0.756091
0.78358
0.0490759
0.111134
0.189788
0.269457
0.337948
0.392151
0.438823
0.480373
0.518443
0.553581
0.583471
0.607321
0.0192929
0.0401346
0.0786969
0.122129
0.15716
0.18463
0.207228
0.227151
0.24491
0.26024
0.27157
0.27886
1.33318
1.32735
1.31776
1.30483
1.28183
1.23507
1.15008
1.02024
0.84101
0.61737
0.350697
0.128408
1.2901
1.28818
1.28092
1.26252
1.22153
1.14591
1.02912
0.873316
0.68356
0.474926
0.256553
0.0801277
1.26798
1.26563
1.25023
1.21498
1.14883
1.0445
0.903676
0.735266
0.551706
0.372673
0.207836
0.0700582
1.24903
1.24141
1.21289
1.15729
1.06693
0.940638
0.786621
0.618336
0.451955
0.304529
0.179655
0.064479
1.22101
1.2067
1.16474
1.0909
0.982179
0.843016
0.686179
0.527138
0.381351
0.259634
0.160032
0.0595719
1.17722
1.1573
1.10489
1.01823
0.898916
0.755854
0.604174
0.458822
0.331927
0.228583
0.144303
0.0537278
1.11428
1.09118
1.03288
0.940174
0.81823
0.678753
0.537205
0.406637
0.2954
0.204809
0.129992
0.0475063
1.03081
1.00717
0.947907
0.855838
0.738299
0.607976
0.479272
0.363153
0.264921
0.183767
0.115354
0.0406959
0.925615
0.903586
0.847777
0.762228
0.654905
0.537878
0.42355
0.321522
0.234876
0.161904
0.0987971
0.0332567
0.794132
0.77519
0.726457
0.65245
0.560624
0.460536
0.36234
0.27476
0.199906
0.135648
0.0785713
0.0251306
0.616525
0.601774
0.56358
0.506391
0.437332
0.359564
0.281873
0.211635
0.151468
0.0992782
0.0513079
0.0162794
0.278982
0.267789
0.248822
0.227675
0.202259
0.172009
0.136925
0.104513
0.0763928
0.0514289
0.0277192
0.00921549
0.303447
0.673594
0.894988
1.10968
1.29729
1.42014
1.46876
1.46924
1.43103
1.38859
1.36019
1.34315
0.285085
0.632819
0.839938
1.03918
1.21385
1.33248
1.38386
1.39224
1.36731
1.33477
1.3115
1.29752
0.2611
0.588974
0.780943
0.964378
1.12536
1.23984
1.29608
1.31346
1.30497
1.28785
1.27617
1.27037
0.238301
0.542056
0.718845
0.887157
1.03426
1.14402
1.20579
1.2334
1.24099
1.24181
1.24457
1.24819
0.214351
0.491953
0.654566
0.808765
0.942398
1.04584
1.11116
1.14894
1.17143
1.18919
1.20577
1.21775
0.18953
0.438821
0.588574
0.729779
0.850883
0.946293
1.01296
1.05846
1.09358
1.12552
1.15336
1.17206
0.163596
0.382501
0.520782
0.649994
0.759433
0.846576
0.912481
0.962945
1.00646
1.04827
1.08376
1.10744
0.136666
0.32274
0.450336
0.568256
0.666943
0.745975
0.809188
0.861445
0.909458
0.956386
0.995633
1.02254
0.108359
0.258887
0.375264
0.482088
0.570877
0.641917
0.701046
0.752384
0.801469
0.848501
0.887945
0.916318
0.0786007
0.189969
0.291756
0.38632
0.465549
0.528703
0.582795
0.631165
0.677227
0.72038
0.756573
0.784585
0.0489519
0.110986
0.18963
0.269278
0.33735
0.391122
0.437563
0.47925
0.517617
0.553411
0.583811
0.608152
0.0192479
0.04008
0.0786464
0.122066
0.15687
0.184181
0.206747
0.226719
0.244618
0.260247
0.271795
0.279473
)
;

boundaryField
{
    rotor
    {
        type            kqRWallFunction;
        value           nonuniform List<scalar> 
192
(
0.10591
0.146942
0.143555
0.158293
0.324235
0.677162
0.887536
0.993558
1.07181
1.11995
1.15097
1.16316
1.15849
1.15347
1.14093
1.11231
1.06813
1.00829
0.930628
0.835694
0.718779
0.58824
0.476209
0.391985
0.102851
0.143597
0.140986
0.156815
0.326797
0.679545
0.88849
0.994328
1.07233
1.12039
1.1513
1.16335
1.15834
1.15286
1.13977
1.11057
1.06628
1.0061
0.928582
0.833713
0.717004
0.586669
0.474763
0.390655
0.103256
0.144159
0.141566
0.157569
0.32912
0.683401
0.892967
0.999273
1.07766
1.12596
1.15698
1.16908
1.16412
1.15879
1.14591
1.1166
1.07204
1.01153
0.933444
0.837906
0.720461
0.589183
0.476771
0.392362
0.102842
0.143587
0.140941
0.156413
0.324064
0.677417
0.887508
0.993366
1.07142
1.11942
1.15036
1.16244
1.15754
1.15218
1.1393
1.11032
1.06621
1.00624
0.928856
0.834121
0.717552
0.587224
0.475501
0.391411
0.10591
0.222301
0.368817
0.465688
0.505226
0.497507
0.473618
0.434348
0.400438
0.350603
0.376834
1.01515
0.391411
0.834377
1.09685
1.31509
1.48191
1.64757
1.79727
1.9706
2.15817
2.3377
2.52501
2.7275
0.102851
0.22026
0.367506
0.464998
0.505023
0.497464
0.473708
0.434612
0.400922
0.351041
0.377141
1.01447
0.391985
0.835853
1.09912
1.31808
1.48556
1.65185
1.80218
1.97618
2.16412
2.34402
2.53128
2.73381
0.103256
0.221101
0.36893
0.466859
0.507106
0.499489
0.475143
0.436778
0.402465
0.352065
0.378153
1.01499
0.390655
0.833436
1.09626
1.3147
1.48182
1.64771
1.79769
1.97128
2.15912
2.33891
2.5264
2.72914
0.102842
0.220171
0.367026
0.46454
0.504595
0.497001
0.473143
0.434068
0.40029
0.350569
0.376694
1.01319
0.392362
0.8367
1.10036
1.31952
1.48716
1.65353
1.80399
1.97816
2.16624
2.34625
2.53332
2.73556
)
;
    }
    stator
    {
        type            kqRWallFunction;
        value           nonuniform List<scalar> 
192
(
0.280188
0.269045
0.25016
0.229046
0.203572
0.173186
0.137864
0.105187
0.076847
0.0517056
0.0278369
0.00926561
0.0192623
0.0400659
0.0785462
0.121943
0.157004
0.184489
0.2071
0.227026
0.244791
0.260117
0.271451
0.278738
0.278851
0.26765
0.248709
0.22758
0.202153
0.171885
0.136773
0.10439
0.076301
0.0513609
0.0276772
0.00919421
0.0191775
0.0400041
0.0786739
0.12213
0.157218
0.184787
0.207544
0.227613
0.245555
0.261157
0.272757
0.280359
0.280726
0.269673
0.25083
0.229715
0.204169
0.173693
0.138222
0.105462
0.0770386
0.0517977
0.0278345
0.00924207
0.0192929
0.0401346
0.0786969
0.122129
0.15716
0.18463
0.207228
0.227151
0.24491
0.26024
0.27157
0.27886
0.278982
0.267789
0.248822
0.227675
0.202259
0.172009
0.136925
0.104513
0.0763928
0.0514289
0.0277192
0.00921549
0.0192479
0.04008
0.0786464
0.122066
0.15687
0.184181
0.206747
0.226719
0.244618
0.260247
0.271795
0.279473
0.303618
0.285136
0.261093
0.23824
0.214265
0.189428
0.163497
0.136583
0.108312
0.0785812
0.0489687
0.0192623
0.129248
0.0800864
0.0697988
0.0642124
0.0593561
0.053578
0.04741
0.0406621
0.0332668
0.0251723
0.0163309
0.00926561
0.302847
0.284543
0.260571
0.23782
0.213918
0.189152
0.163274
0.136393
0.108134
0.0784221
0.0488023
0.0191775
0.128204
0.0802551
0.0702217
0.0646201
0.0596803
0.0538111
0.047563
0.0407287
0.033268
0.0251266
0.0162641
0.00919421
0.303659
0.285322
0.26129
0.23848
0.214512
0.189685
0.163745
0.136814
0.108511
0.0787462
0.0490759
0.0192929
0.128513
0.0801843
0.0700307
0.0644153
0.0595362
0.05373
0.0475246
0.0407376
0.0332965
0.0251729
0.0163078
0.00924207
0.303447
0.285085
0.2611
0.238301
0.214351
0.18953
0.163596
0.136666
0.108359
0.0786007
0.0489519
0.0192479
0.128408
0.0801277
0.0700582
0.064479
0.0595719
0.0537278
0.0475063
0.0406959
0.0332567
0.0251306
0.0162794
0.00921549
)
;
    }
    front
    {
        type            empty;
    }
    back
    {
        type            empty;
    }
}

