/*--------------------------------*- C++ -*----------------------------------*\
| =========                 |                                                 |
| \\      /  F ield         | OpenFOAM: The Open Source CFD Toolbox           |
|  \\    /   O peration     | Version:  4.0                                   |
|   \\  /    A nd           | Web:      www.OpenFOAM.org                      |
|    \\/     M anipulation  |                                                 |
\*---------------------------------------------------------------------------*/
FoamFile
{
    version     2.0;
    format      ascii;
    class       volScalarField;
    location    "100";
    object      nut;
}
// * * * * * * * * * * * * * * * * * * * * * * * * * * * * * * * * * * * * * //

dimensions      [0 2 -1 0 0 0 0];

internalField   nonuniform List<scalar> 
3072
(
5.06229e-05
0.000108875
0.00010728
0.000111249
0.000153988
0.000229814
0.00026656
0.000282372
0.000293509
0.000299999
0.000304196
0.000305794
8.15203e-05
0.000242733
0.00022284
0.00022355
0.000294199
0.000394515
0.000539825
0.000728846
0.000942944
0.00116262
0.00137935
0.00158813
0.000115195
0.000417011
0.000430321
0.000530303
0.000715961
0.000967109
0.00131936
0.00168995
0.00204306
0.00236667
0.00265947
0.00287945
0.000142012
0.000617514
0.000733778
0.000914264
0.00118826
0.00158058
0.00202955
0.00247111
0.00287138
0.00323749
0.00353635
0.00374637
0.000160944
0.000774766
0.000988709
0.00124009
0.00161627
0.00208277
0.00257741
0.00304476
0.00346128
0.0038343
0.00411725
0.00432978
0.000172331
0.000848453
0.00118779
0.00152511
0.0019527
0.00244836
0.00295745
0.00342463
0.00383807
0.00419954
0.00447725
0.00469255
0.000180537
0.0009241
0.00133784
0.00173398
0.00218865
0.00269036
0.0031891
0.00365547
0.00406659
0.00440939
0.00466642
0.00486565
0.000184199
0.000963554
0.0014478
0.0018785
0.00234983
0.00284261
0.00332903
0.00376774
0.00414651
0.00445815
0.00470506
0.00489184
0.000188022
0.000936713
0.00154154
0.00198962
0.00245616
0.00291045
0.00335179
0.0037594
0.00411001
0.00440178
0.00463456
0.00481095
0.000187798
0.000906753
0.00157064
0.00203233
0.0024656
0.00287815
0.00328365
0.00365926
0.00398848
0.00426264
0.00447617
0.0046443
0.000207263
0.000899464
0.00155906
0.00202298
0.00241304
0.00279118
0.00312388
0.00346499
0.00378063
0.00404194
0.00424173
0.00440512
0.000365286
0.000941921
0.0015442
0.00191622
0.00225732
0.00257118
0.00289743
0.00319272
0.00347775
0.00373143
0.00393341
0.00409759
0.000305156
0.000304435
0.000302756
0.000298989
0.000293176
0.000285013
0.000274084
0.000260069
0.000241614
0.00021886
0.000197468
9.79891e-05
0.00175439
0.00186696
0.00190003
0.00185322
0.00176718
0.00161791
0.00140826
0.00116249
0.00089586
0.000557935
0.000273548
0.000159326
0.00302287
0.00310231
0.00311276
0.00305353
0.00293356
0.00273286
0.00243338
0.0020351
0.00156411
0.00102991
0.000455547
0.000201358
0.00390105
0.00398344
0.00400058
0.00394858
0.00383634
0.00366382
0.00336143
0.00291866
0.00231891
0.00159266
0.00076249
0.000241202
0.00448507
0.00457792
0.00461167
0.00458619
0.00449822
0.0043641
0.00408832
0.00366294
0.00302032
0.00215974
0.00109561
0.00027802
0.0048431
0.00493428
0.00497291
0.00496552
0.00490341
0.00480967
0.00458751
0.00423165
0.00367465
0.00274957
0.0015117
0.000316405
0.00500401
0.00508957
0.00512929
0.00513019
0.00509136
0.00502921
0.00489368
0.00465087
0.00420004
0.00332879
0.00197979
0.000354709
0.00502161
0.00509831
0.00513141
0.00512932
0.00510112
0.00506209
0.00500313
0.00488454
0.00458186
0.00384211
0.00239129
0.000396804
0.00493609
0.00500017
0.00502366
0.00501302
0.00497902
0.00495323
0.00494362
0.00494145
0.00483789
0.00429148
0.00278416
0.000441951
0.00476571
0.00482114
0.00483715
0.00481689
0.00477394
0.00474881
0.0047608
0.00483762
0.00492702
0.0046374
0.00325342
0.000487822
0.00452324
0.00457526
0.00458898
0.00455734
0.00450891
0.00447793
0.00450724
0.00463211
0.00484991
0.00488786
0.00380209
0.000536394
0.00421333
0.00427256
0.00428266
0.00425382
0.00421431
0.00419354
0.00424393
0.00439445
0.00468854
0.00497427
0.004416
0.000588176
4.96653e-05
0.000107514
0.000106321
0.000110686
0.000154499
0.000230171
0.000266641
0.000282425
0.000293542
0.000300039
0.000304225
0.000305769
8.10918e-05
0.000240679
0.000221313
0.000224416
0.000295629
0.000396575
0.00054257
0.000732332
0.000947084
0.00116728
0.00138448
0.00159303
0.000114974
0.000417167
0.000431249
0.000533718
0.00071919
0.000972035
0.00132542
0.00169706
0.00205101
0.00237565
0.00266918
0.00288865
0.000141881
0.000618149
0.000735437
0.000917225
0.00119289
0.00158777
0.00203838
0.00248109
0.00288251
0.00324974
0.00354914
0.00375867
0.000160909
0.000775826
0.000991088
0.00124543
0.00162331
0.00209204
0.00258838
0.00305694
0.00347462
0.00384854
0.00413198
0.0043442
0.000172334
0.000849661
0.00119093
0.00153076
0.00196115
0.0024598
0.00297316
0.00343858
0.00385291
0.00421537
0.00449343
0.00470835
0.000180584
0.00092538
0.00134165
0.0017405
0.00219802
0.00270229
0.0032051
0.00367074
0.00408253
0.00442564
0.00468274
0.00488163
0.000184227
0.000964731
0.00145187
0.00188538
0.00235924
0.00285479
0.00334357
0.00378273
0.00416214
0.00447423
0.0047211
0.00490744
0.00018812
0.000938119
0.0015453
0.00199612
0.00246512
0.00292162
0.00336477
0.00377361
0.00412499
0.00441714
0.00464974
0.00482554
0.000187893
0.000906836
0.00157364
0.0020376
0.00247328
0.00288752
0.00329513
0.00367211
0.00400215
0.0042766
0.00448988
0.00465735
0.000207332
0.000899548
0.00156042
0.0020261
0.00241796
0.00279819
0.00313251
0.00347566
0.00379233
0.00405388
0.00425339
0.00441622
0.000365177
0.000941809
0.00154317
0.00191597
0.00225825
0.00257386
0.00290174
0.00319924
0.00348673
0.0037409
0.00394272
0.00410656
0.000305046
0.000304246
0.0003025
0.000298681
0.000292837
0.000284633
0.000273726
0.000259717
0.00024128
0.000218544
0.000197161
9.78239e-05
0.00175875
0.00187017
0.001902
0.00185408
0.00176699
0.00161736
0.00140748
0.00116194
0.000895354
0.000557359
0.00027314
0.000159094
0.00303161
0.00310882
0.00311725
0.00305589
0.00293391
0.00273246
0.0024325
0.00203367
0.00156264
0.0010289
0.000454965
0.00020109
0.00391217
0.00399233
0.00400693
0.00395244
0.00383809
0.0036651
0.0033615
0.00291602
0.00231653
0.00159082
0.000761438
0.000240884
0.00449848
0.00458954
0.0046209
0.00459278
0.0045023
0.00436672
0.00408966
0.00366043
0.00301683
0.00215717
0.00109389
0.000277664
0.00485797
0.00494773
0.00498436
0.00497467
0.0049101
0.00481432
0.00458942
0.00423093
0.00367238
0.00274671
0.00150929
0.000316011
0.00501923
0.00510355
0.00514155
0.00514028
0.00509886
0.00503445
0.00489603
0.0046504
0.00419749
0.0033249
0.00197659
0.000354278
0.00503637
0.00511188
0.00514335
0.00513926
0.00510877
0.00506733
0.00500545
0.00488383
0.00457876
0.00383784
0.00238822
0.00039633
0.00494976
0.00501268
0.00503458
0.00502205
0.00498596
0.00495816
0.00494579
0.00494046
0.00483425
0.00428688
0.00278032
0.000441473
0.00477782
0.00483212
0.00484661
0.00482462
0.00477988
0.00475298
0.00476264
0.00483665
0.00492317
0.00463211
0.00324911
0.000487322
0.00453349
0.0045844
0.00459668
0.00456371
0.00451397
0.00448077
0.00450848
0.00463106
0.00484623
0.00488306
0.00379782
0.000535918
0.00422164
0.00427966
0.00428833
0.00425871
0.00421767
0.00419514
0.00424409
0.00439287
0.00468506
0.00496953
0.00441132
0.000587716
4.97708e-05
0.000107721
0.000106535
0.000110941
0.000155098
0.000230868
0.000267342
0.000283145
0.000294278
0.000300772
0.000304955
0.000306518
8.12509e-05
0.000241001
0.000221668
0.000224791
0.000296261
0.000397446
0.0005437
0.000733765
0.00094877
0.00116917
0.00138681
0.00159591
0.000115186
0.000417808
0.00043183
0.000534498
0.000720252
0.000973598
0.00132756
0.00169963
0.00205375
0.00237878
0.00267241
0.00289224
0.000142176
0.000619069
0.000736331
0.000918356
0.00119428
0.00158997
0.0020412
0.00248427
0.00288606
0.0032538
0.00355071
0.00375937
0.000161257
0.000777164
0.000992392
0.00124683
0.00162511
0.00209461
0.00259166
0.00306053
0.00347862
0.00385269
0.00413524
0.00434743
0.000172794
0.000851025
0.00119237
0.0015324
0.00196327
0.00246271
0.00297687
0.0034426
0.00385737
0.00421965
0.00449717
0.00471205
0.000180315
0.000924994
0.00134316
0.0017424
0.0022004
0.0027055
0.00320898
0.00367491
0.00408698
0.00442968
0.0046865
0.00488501
0.000185582
0.000969993
0.00145382
0.00188751
0.00236196
0.00285813
0.00334752
0.00378706
0.00416649
0.00447833
0.00472481
0.00491069
0.00018871
0.00093511
0.00154678
0.00199838
0.00246816
0.0029253
0.00336901
0.00377806
0.00412933
0.00442131
0.00465342
0.00482896
0.000188064
0.000908508
0.0015756
0.00204023
0.00247662
0.00289166
0.00329977
0.00367686
0.00400684
0.00428102
0.00449377
0.0046612
0.000207561
0.000900981
0.00156299
0.00202952
0.00242222
0.00280309
0.00313769
0.00348127
0.00379779
0.00405885
0.00425806
0.00442079
0.000365148
0.000943026
0.00154587
0.00192058
0.0022635
0.00258019
0.00290825
0.00320566
0.00349367
0.00374741
0.00394891
0.00411206
0.000305825
0.000305052
0.000303332
0.000299494
0.000293641
0.000285414
0.000274452
0.000260369
0.000241854
0.000219004
0.000197571
9.80326e-05
0.00176237
0.00187455
0.00190695
0.00185965
0.00177294
0.00162325
0.00141274
0.00116588
0.000898221
0.000559326
0.000273896
0.000159398
0.00303605
0.00311466
0.00312431
0.00306407
0.00294295
0.00274163
0.00244121
0.00204113
0.00156766
0.00103202
0.000456377
0.000201455
0.0039142
0.00399798
0.00401413
0.00396081
0.00384751
0.00367478
0.00337107
0.00292477
0.00232338
0.00159539
0.000763494
0.000241314
0.0045019
0.00459404
0.00462643
0.00459955
0.00451057
0.00437606
0.00409924
0.00366894
0.00302445
0.00216281
0.0010969
0.000278149
0.00486134
0.00495105
0.00498796
0.00497881
0.00491517
0.00482025
0.00459638
0.00423873
0.00367994
0.002753
0.00151317
0.000316549
0.00502208
0.00510602
0.0051438
0.00514263
0.00510166
0.00503795
0.00490064
0.00465637
0.00420442
0.00333188
0.00198144
0.000354875
0.00503897
0.00511382
0.00514478
0.00514036
0.00510984
0.00506884
0.00500809
0.00488827
0.00458536
0.0038451
0.002393
0.000396994
0.00495234
0.00501438
0.00503564
0.00502251
0.00498595
0.00495826
0.00494673
0.00494322
0.00483965
0.00429383
0.00278604
0.000442167
0.00478083
0.00483395
0.00484783
0.00482514
0.00477955
0.00475257
0.00476259
0.00483802
0.00492724
0.00463943
0.00325554
0.000488057
0.00453706
0.00458705
0.00459868
0.00456497
0.00451428
0.00448121
0.00450831
0.00463157
0.00484887
0.00488906
0.00380362
0.000536626
0.00422599
0.00428339
0.00429161
0.00426086
0.00421883
0.00419508
0.00424434
0.00439349
0.00468724
0.00497446
0.00441754
0.000588385
4.9663e-05
0.000107491
0.000106298
0.000110564
0.000153836
0.000229798
0.0002665
0.000282297
0.000293422
0.000299914
0.000304109
0.000305664
8.10766e-05
0.000240445
0.0002211
0.000223734
0.000294442
0.000394992
0.000540516
0.000729734
0.000943976
0.00116383
0.0013806
0.00158895
0.000114914
0.000416232
0.000429689
0.000530456
0.000716175
0.000968003
0.00132067
0.00169166
0.00204514
0.00236915
0.00266181
0.00288073
0.000141825
0.000616555
0.00073277
0.000914012
0.00118862
0.00158209
0.0020318
0.002474
0.00287512
0.00324188
0.00353802
0.00374602
0.00016085
0.000774314
0.00098785
0.00124031
0.00161747
0.0020851
0.0025807
0.00304884
0.00346618
0.00383963
0.00412177
0.00433368
0.000172269
0.000847969
0.00118736
0.00152577
0.00195448
0.00245139
0.00296148
0.00342954
0.00384382
0.00420562
0.00448301
0.0046979
0.000180476
0.000923615
0.00133769
0.00173486
0.00219076
0.00269369
0.0031936
0.00366097
0.00407272
0.00441553
0.00467239
0.00487121
0.000184145
0.00096305
0.00144768
0.00187936
0.00235182
0.00284608
0.00333364
0.00377295
0.00415214
0.00446391
0.00471063
0.00489697
0.000187987
0.00093674
0.00154152
0.00199036
0.00245797
0.00291332
0.00335557
0.00376392
0.00411496
0.00440687
0.00463942
0.00481534
0.00018778
0.000906387
0.00157044
0.00203261
0.00246684
0.00288009
0.00328662
0.00366291
0.0039925
0.00426676
0.00448005
0.00464769
0.00020721
0.000899413
0.00155864
0.00202282
0.00241334
0.0027921
0.00312528
0.00346745
0.00378347
0.00404484
0.00424438
0.00440733
0.000364883
0.000941461
0.00154265
0.00191485
0.00225623
0.00257018
0.00289688
0.00319298
0.00347896
0.0037326
0.00393452
0.0040986
0.00030496
0.00030418
0.00030246
0.000298669
0.000292855
0.000284678
0.000273787
0.000259784
0.000241371
0.000218642
0.000197301
9.79104e-05
0.00175453
0.00186607
0.00189822
0.00185071
0.00176426
0.00161504
0.00140547
0.00116014
0.000894111
0.000557073
0.000273225
0.000159173
0.00302379
0.00310173
0.003111
0.00305078
0.00292998
0.00272934
0.00242962
0.00203151
0.00156097
0.00102781
0.000454752
0.000201135
0.00390035
0.00398365
0.00399958
0.00394635
0.0038327
0.0036601
0.00335711
0.00291398
0.00231453
0.00158935
0.000760938
0.00024091
0.00448813
0.00458026
0.00461266
0.00458564
0.00449557
0.00436025
0.0040838
0.00365721
0.00301478
0.00215512
0.00109326
0.000277661
0.00484761
0.00493786
0.00497514
0.00496619
0.00490202
0.00480672
0.00458245
0.00422517
0.00366744
0.00274353
0.00150829
0.000315986
0.00500883
0.00509335
0.00513172
0.00513088
0.00508971
0.00502573
0.00488788
0.00464308
0.00419139
0.00332133
0.00197541
0.000354226
0.00502598
0.00510164
0.00513337
0.00512954
0.00509923
0.00505804
0.00499659
0.00487569
0.00457202
0.00383322
0.00238653
0.00039625
0.00493969
0.0050027
0.00502485
0.00501256
0.00497658
0.00494887
0.00493671
0.00493175
0.00482666
0.00428139
0.00277852
0.000441362
0.00476833
0.00482271
0.00483746
0.00481576
0.00477104
0.00474426
0.00475396
0.00482812
0.00491492
0.00462595
0.00324723
0.000487178
0.00452475
0.00457577
0.00458835
0.00455566
0.00450584
0.00447301
0.00450067
0.0046233
0.00483815
0.00487608
0.00379607
0.000535745
0.00421373
0.00427188
0.00428104
0.00425158
0.00421065
0.00418884
0.00423802
0.00438681
0.00467852
0.0049621
0.00440949
0.000587516
0.00217449
0.00216446
0.00210394
0.00208784
0.00213364
0.00227951
0.00252281
0.00283147
0.0031161
0.00335852
0.00356415
0.00372421
0.00329433
0.00282937
0.00247838
0.00235911
0.00225921
0.00225425
0.00230928
0.00247977
0.00272018
0.00296306
0.003164
0.00332414
0.00421566
0.00363445
0.00310152
0.00278183
0.00250666
0.00237831
0.00228423
0.00233113
0.00245278
0.00262284
0.00280014
0.00295396
0.00453465
0.004078
0.00357818
0.00313423
0.00275657
0.00257715
0.00239105
0.00223038
0.00229444
0.00241557
0.00256233
0.00271609
0.00384686
0.00392318
0.00394041
0.00395402
0.00393782
0.00394973
0.00403585
0.00420222
0.00453439
0.0050811
0.00571955
0.00231704
0.00346809
0.00354408
0.00361271
0.00366418
0.00368189
0.00375172
0.00398069
0.0041909
0.00450806
0.00500168
0.00595393
0.00400781
0.0031173
0.00320248
0.00333375
0.00340764
0.00351972
0.00389723
0.00416871
0.0043886
0.00459477
0.00484349
0.00547983
0.00484559
0.00285326
0.00297585
0.00311996
0.00347861
0.00390555
0.00417152
0.00442965
0.00457413
0.00463899
0.00469508
0.00494435
0.00486566
0.00217107
0.00215962
0.00209864
0.00208398
0.0021302
0.00227676
0.00252387
0.00283512
0.00312164
0.00336548
0.00357102
0.00373105
0.00328777
0.00282212
0.00247307
0.00235436
0.00225201
0.00224845
0.00230485
0.00247847
0.00272194
0.00296658
0.00316751
0.00332822
0.00420781
0.00362544
0.00309455
0.0027732
0.00250126
0.00236988
0.00227791
0.00232647
0.00245021
0.00262256
0.00280009
0.00295533
0.00452551
0.00406798
0.0035695
0.00312328
0.00274849
0.00256927
0.00237934
0.00222297
0.00228945
0.0024125
0.0025603
0.00271562
0.00385315
0.00392793
0.00394387
0.00395705
0.0039388
0.00394942
0.00403433
0.00419971
0.0045306
0.00507666
0.00571539
0.00231818
0.00347199
0.003546
0.00361452
0.00366454
0.00368109
0.00374928
0.00397709
0.00418749
0.00450477
0.00499852
0.00595125
0.00400902
0.00311796
0.00320312
0.00333307
0.00340608
0.00351653
0.00389372
0.00416565
0.0043861
0.00459344
0.00484303
0.00548024
0.00484795
0.00285248
0.00297386
0.00311685
0.00347493
0.00390199
0.00416833
0.0044275
0.00457388
0.00464079
0.00469851
0.0049489
0.00487064
0.00217268
0.00216257
0.00210231
0.00208817
0.00213589
0.00228398
0.00253237
0.00284343
0.00312953
0.0033735
0.00357831
0.00373773
0.00329093
0.00282668
0.00247723
0.00235876
0.00225829
0.0022554
0.0023135
0.00248805
0.00273181
0.0029759
0.00317549
0.00333621
0.00421173
0.00363143
0.00310031
0.00277998
0.00250688
0.00237738
0.00228645
0.0023366
0.00246112
0.0026337
0.00280925
0.00296423
0.00453121
0.00407523
0.00357663
0.00313157
0.00275564
0.00257645
0.00238928
0.00223313
0.00230027
0.00242356
0.00257141
0.00272301
0.00385891
0.00393295
0.00394849
0.00395954
0.00394102
0.00394872
0.0040358
0.00420062
0.00453301
0.00508103
0.00572036
0.00231431
0.00347883
0.00355312
0.00361964
0.00366748
0.00368283
0.00375099
0.00398076
0.00419169
0.00450937
0.00500345
0.00595626
0.00400615
0.0031259
0.0032099
0.00333767
0.00340971
0.00352137
0.00390042
0.00416925
0.00438972
0.0045976
0.00484722
0.00548477
0.0048475
0.00285768
0.00297752
0.00312107
0.00348236
0.00390684
0.00417412
0.00443272
0.00457846
0.00464405
0.00470084
0.00495098
0.00487078
0.00216787
0.00215652
0.00209664
0.00208312
0.00212937
0.00227549
0.00252097
0.00283071
0.00311579
0.00335853
0.00356405
0.00372396
0.00328454
0.00281917
0.00247119
0.00235324
0.00225164
0.00224867
0.00230435
0.00247627
0.00271806
0.00296145
0.00316245
0.00332244
0.00420751
0.00362432
0.00309353
0.00277273
0.00250124
0.00237085
0.0022784
0.0023257
0.00244827
0.00261916
0.00279692
0.00295087
0.00452851
0.00406946
0.00357007
0.00312378
0.00274935
0.0025707
0.00238156
0.00222354
0.00228875
0.00241063
0.0025577
0.00271245
0.00384597
0.00392114
0.00393763
0.00395103
0.00393368
0.00394513
0.00403011
0.00419553
0.00452574
0.00507087
0.0057123
0.00231811
0.0034658
0.00354085
0.00360914
0.00366042
0.00367781
0.00374646
0.00397379
0.00418447
0.0045004
0.00499379
0.00594748
0.00401048
0.00311385
0.00319882
0.00332998
0.00340362
0.00351449
0.00388931
0.00416513
0.00438449
0.00459064
0.00483943
0.00547591
0.00484932
0.00284985
0.00297237
0.00311615
0.0034732
0.00390313
0.00416876
0.00442555
0.00457054
0.00463681
0.00469429
0.00494455
0.00487224
0.00398831
0.00357725
0.00315997
0.00283033
0.00257798
0.00240615
0.00229564
0.00216817
0.00228353
0.00239338
0.00247446
0.00257316
0.00352066
0.00316073
0.00285789
0.00262962
0.00243086
0.00231461
0.00226111
0.00224698
0.00232121
0.00230187
0.00220325
0.00208176
0.00315991
0.00287889
0.0026785
0.00250698
0.00236334
0.00231521
0.00230181
0.00229671
0.00226187
0.00209225
0.00178402
0.00136268
0.00292209
0.00272724
0.0025853
0.00246438
0.00237588
0.00236189
0.00233902
0.00228315
0.00214213
0.00185238
0.00127452
0.00064594
0.00279948
0.0032102
0.00355533
0.00407677
0.00447149
0.00465212
0.00470479
0.00467204
0.00458395
0.00449775
0.00448215
0.00431172
0.00228674
0.00302969
0.00374409
0.00432985
0.00468428
0.0047952
0.0047567
0.00463673
0.00442202
0.00423594
0.00407046
0.00383298
0.00122679
0.00284246
0.00377858
0.00435354
0.00470562
0.00479384
0.00470117
0.00452538
0.00423166
0.00395255
0.00370578
0.00344455
0.00056045
0.00265618
0.00369987
0.00428331
0.00463941
0.00471896
0.0045942
0.00438297
0.00404738
0.0037191
0.00343327
0.00316842
0.00397668
0.00356597
0.00314969
0.00282107
0.0025687
0.00239693
0.00228439
0.00216161
0.00227922
0.00239043
0.00247152
0.00256992
0.00350791
0.00314918
0.00284849
0.00261982
0.00242066
0.0023052
0.00225155
0.0022423
0.00231685
0.00229744
0.00219778
0.00207488
0.00314624
0.00286886
0.002669
0.00249659
0.00235375
0.00230668
0.00229424
0.00229245
0.00225696
0.00208683
0.00177692
0.00135373
0.00291014
0.00271794
0.00257581
0.00245448
0.0023675
0.00235447
0.00233275
0.00227889
0.00213738
0.00184773
0.00126747
0.000637473
0.00279555
0.00320622
0.00355086
0.00407346
0.00446923
0.00465291
0.00470774
0.0046746
0.00458771
0.00450456
0.00448939
0.00431985
0.00227823
0.00302474
0.00373977
0.00432652
0.0046829
0.00479855
0.00476357
0.00464454
0.0044298
0.004245
0.00408075
0.00384409
0.00121726
0.00283772
0.00377446
0.00435068
0.00470512
0.00479854
0.00470684
0.00453242
0.00424101
0.0039638
0.00371832
0.0034574
0.00055795
0.00265215
0.00369597
0.00428071
0.00463931
0.00472411
0.00459984
0.00438988
0.00405745
0.00373126
0.0034465
0.00318155
0.00398598
0.00357555
0.00315862
0.00282944
0.0025775
0.00240618
0.00229554
0.00217303
0.00229065
0.0024004
0.00247926
0.00257353
0.00351924
0.00316005
0.00285776
0.00262957
0.00243132
0.00231616
0.00226385
0.00225369
0.00232741
0.00230595
0.00220351
0.00207659
0.00315892
0.00287959
0.00267914
0.00250788
0.00236523
0.00231838
0.00230633
0.00230316
0.00226652
0.00209436
0.00178206
0.00135576
0.00292284
0.0027288
0.00258666
0.00246643
0.00237899
0.00236603
0.00234398
0.00228862
0.00214569
0.00185421
0.0012729
0.00063972
0.00279669
0.00320867
0.00355518
0.00408012
0.00447477
0.00465578
0.00470876
0.00467733
0.00459018
0.00450464
0.00448891
0.00431727
0.00227829
0.00302758
0.00374528
0.00433336
0.00468782
0.00479961
0.00476142
0.00464246
0.00442894
0.0042433
0.00407754
0.00383883
0.00121773
0.00284059
0.00377996
0.00435678
0.00470981
0.00479902
0.00470654
0.0045312
0.00423861
0.00395992
0.00371276
0.00345036
0.000558858
0.00265554
0.00370152
0.0042865
0.00464356
0.00472408
0.00459945
0.0043885
0.00405401
0.00372612
0.00343983
0.00317377
0.00398045
0.00356851
0.00315145
0.00282254
0.00257053
0.00239912
0.00228662
0.00216137
0.00227761
0.0023882
0.00246975
0.00256931
0.00351235
0.00315247
0.00285081
0.00262194
0.00242283
0.00230696
0.00225224
0.00224064
0.00231487
0.00229597
0.00219768
0.0020769
0.0031507
0.00287219
0.00267159
0.0024987
0.00235536
0.00230722
0.00229347
0.00229026
0.00225513
0.00208585
0.00177752
0.00135677
0.00291402
0.00272103
0.00257814
0.00245584
0.00236806
0.00235386
0.00233118
0.00227668
0.00213567
0.00184661
0.00126759
0.00063967
0.00279636
0.0032072
0.00355262
0.00407445
0.00447073
0.00465487
0.0047034
0.00467099
0.00458451
0.00450075
0.00448714
0.0043239
0.00228175
0.00302725
0.00374255
0.00432891
0.00468483
0.00479682
0.00475711
0.00463702
0.00442499
0.0042413
0.00408014
0.00384901
0.00122154
0.00284073
0.00377806
0.00435396
0.00470662
0.00479546
0.00470201
0.00452603
0.00423574
0.0039613
0.00372027
0.0034629
0.00055927
0.00265481
0.00369993
0.00428438
0.00464084
0.00472049
0.00459492
0.0043833
0.0040515
0.00372858
0.00344823
0.00318463
0.00280452
0.00266673
0.00256685
0.00248618
0.00242639
0.00240397
0.00234169
0.00222321
0.00200773
0.00166611
0.000997813
0.000196023
0.00277406
0.00267932
0.00260569
0.00253169
0.00247882
0.00242392
0.00231506
0.00214407
0.00189036
0.00154922
0.000942295
0.00015163
0.00280729
0.00273699
0.00265954
0.00258647
0.00251863
0.00242478
0.00227546
0.0020713
0.00180989
0.00150308
0.000969175
0.000144106
0.00287278
0.00280098
0.00271636
0.00263651
0.00254386
0.00241501
0.002237
0.00201722
0.00176401
0.00148273
0.00100393
0.000142953
0.0029328
0.00285079
0.0027651
0.00267142
0.00255349
0.0023973
0.00220069
0.00197441
0.00172654
0.00144409
0.00100299
0.000141905
0.00296327
0.00287609
0.00278776
0.00267938
0.0025399
0.00236294
0.00215248
0.0019186
0.00166351
0.00136617
0.000953126
0.000139225
0.00293607
0.00285374
0.00276303
0.00264257
0.00248607
0.00229245
0.0020684
0.00182227
0.00155274
0.00124241
0.000861579
0.000135175
0.00282144
0.00275132
0.00266092
0.00253273
0.00236436
0.00215777
0.00192151
0.00166447
0.00138648
0.00107652
0.000734869
0.000129359
0.00256999
0.00251856
0.00243366
0.00230424
0.00213223
0.001921
0.00168228
0.0014277
0.00115888
0.000871667
0.000577211
0.000120951
0.00209628
0.00206946
0.00199918
0.00188031
0.00172208
0.00152697
0.0013126
0.00108822
0.000859687
0.000623357
0.000392222
0.000108911
0.00125483
0.00125075
0.00121048
0.00112932
0.001028
0.000896544
0.000759194
0.000612215
0.000468061
0.000324713
0.000178747
9.11252e-05
0.000146426
0.000143687
0.000138532
0.000132551
0.000125092
0.000115576
0.00010358
9.05255e-05
7.74016e-05
6.36576e-05
4.70832e-05
2.75554e-05
0.000289544
0.00247254
0.00358209
0.00415948
0.00451479
0.00460274
0.00446381
0.00423505
0.00388861
0.00354625
0.00325329
0.00300717
0.000289745
0.00238821
0.00344052
0.00399545
0.00434567
0.00445217
0.00431854
0.00408638
0.00375973
0.00342995
0.00315333
0.00293598
0.000286917
0.00230675
0.00326943
0.00379673
0.00413878
0.00426878
0.00416476
0.0039456
0.00365535
0.0033568
0.00311037
0.00292398
0.000282901
0.00220124
0.00306535
0.00356565
0.00389861
0.00405404
0.00399664
0.00381146
0.00356433
0.00330927
0.00310114
0.00295011
0.000276827
0.00206584
0.00282623
0.00330189
0.00362766
0.00380247
0.00379279
0.00366017
0.00346645
0.00326727
0.00309522
0.00298659
0.000268167
0.00189568
0.00254986
0.0030021
0.00332359
0.00350953
0.00354459
0.00346728
0.00333621
0.00319712
0.00306915
0.00300071
0.000256524
0.00168571
0.00223379
0.00265983
0.0029752
0.00317097
0.00324568
0.00322518
0.00315488
0.00307249
0.00299423
0.00296043
0.0002413
0.00143168
0.00187554
0.00226599
0.00256807
0.00276948
0.00287612
0.00290614
0.00289419
0.00286442
0.00283218
0.00283141
0.000221092
0.00112866
0.00147197
0.00180872
0.00208295
0.00227737
0.00240372
0.00247366
0.00251294
0.00252749
0.00253328
0.00256296
0.000193844
0.00078001
0.00101865
0.00126407
0.00148103
0.00164967
0.0017782
0.00187309
0.00194485
0.0019913
0.00202172
0.00207184
0.00015808
0.000369016
0.000484664
0.000633402
0.000768644
0.000871947
0.000959953
0.00103512
0.00109821
0.00114514
0.00118613
0.00122833
3.94201e-05
5.58183e-05
7.6981e-05
9.62218e-05
0.000109104
0.000118134
0.00012511
0.000131039
0.000136134
0.000140618
0.000143804
0.000145839
0.00279412
0.0026581
0.00255809
0.00247721
0.00241908
0.00239733
0.00233618
0.00221911
0.00200386
0.00166338
0.000995914
0.000195161
0.00276508
0.00267199
0.00259882
0.00252304
0.00247211
0.0024177
0.00230995
0.0021403
0.00188772
0.00154902
0.000943901
0.000151728
0.00279946
0.00272969
0.00265147
0.00257876
0.00251197
0.00241862
0.00227047
0.00206782
0.00180832
0.00150441
0.000972812
0.000144527
0.00286584
0.00279342
0.00270825
0.00262889
0.00253687
0.00240861
0.00223186
0.00201385
0.00176305
0.0014846
0.0010082
0.000143351
0.00292625
0.00284308
0.00275691
0.00266349
0.002546
0.00239049
0.00219524
0.00197097
0.00172581
0.00144619
0.00100759
0.000142244
0.00295692
0.0028685
0.00277949
0.00267109
0.00253193
0.00235574
0.00214676
0.00191506
0.00166287
0.00136865
0.000957622
0.000139455
0.00293009
0.0028464
0.00275482
0.00263413
0.00247788
0.00228511
0.00206261
0.00181875
0.00155214
0.0012449
0.000865929
0.000135318
0.00281608
0.00274447
0.00265309
0.0025245
0.00235632
0.00215061
0.00191591
0.00166108
0.00138577
0.00107856
0.000738673
0.000129376
0.00256545
0.00251249
0.00242657
0.00229672
0.00212482
0.00191445
0.00167715
0.00142453
0.00115795
0.000872927
0.000580065
0.00012086
0.00209269
0.00206457
0.00199337
0.00187416
0.00171597
0.00152158
0.00130838
0.00108544
0.000858482
0.000623606
0.00039389
0.000108703
0.00125298
0.0012478
0.00120688
0.00112561
0.00102415
0.000893196
0.000756587
0.000610358
0.000467065
0.000324461
0.000179279
9.08452e-05
0.000146059
0.000143303
0.000138134
0.000132144
0.000124683
0.000115171
0.0001032
9.02053e-05
7.71427e-05
6.34591e-05
4.69593e-05
2.74666e-05
0.000289175
0.00246942
0.00357847
0.0041571
0.00451476
0.00460772
0.00446968
0.0042416
0.00389862
0.00355818
0.00326602
0.00301971
0.000289457
0.00238555
0.00343715
0.00399325
0.0043455
0.00445625
0.00432428
0.00409291
0.00376909
0.00344108
0.00316499
0.0029474
0.000286635
0.00230437
0.00326626
0.00379471
0.00413847
0.00427196
0.00417031
0.00395178
0.00366366
0.00336747
0.00312127
0.00293413
0.00028267
0.00219904
0.00306235
0.0035638
0.00389828
0.00405651
0.00400139
0.00381702
0.0035714
0.00332179
0.00311286
0.00295934
0.000276609
0.00206375
0.00282337
0.00330019
0.00362745
0.00380401
0.00379597
0.00366419
0.00347173
0.00327546
0.00310407
0.00299377
0.000267997
0.00189364
0.00254711
0.00300048
0.00332328
0.00351045
0.00354678
0.0034705
0.0033409
0.00320413
0.00307634
0.00300701
0.00025636
0.00168364
0.00223115
0.00265826
0.00297471
0.00317155
0.00324728
0.00322768
0.00315861
0.00307906
0.0030007
0.00296635
0.000241162
0.00142949
0.00187306
0.00226447
0.00256736
0.00276955
0.00287696
0.00290775
0.00289668
0.00287066
0.00283816
0.00283696
0.000220886
0.00112626
0.00146972
0.00180732
0.00208203
0.00227688
0.00240377
0.00247438
0.00251461
0.00253282
0.00253865
0.0025679
0.000193669
0.000777615
0.00101677
0.00126286
0.00148008
0.00164868
0.00177757
0.00187316
0.00194613
0.00199482
0.00202617
0.00207584
0.000157727
0.000367373
0.00048349
0.000632729
0.0007679
0.000871116
0.000959437
0.00103535
0.00109893
0.00114684
0.00118848
0.00123108
3.93091e-05
5.57916e-05
7.70633e-05
9.63102e-05
0.000109179
0.000118227
0.000125249
0.000131218
0.000136364
0.000140921
0.000144187
0.000146383
0.00280621
0.00266888
0.0025689
0.00248912
0.00243015
0.00240836
0.00234642
0.00222771
0.00201077
0.00166853
0.000999154
0.000195326
0.00277594
0.00268186
0.00260826
0.00253506
0.00248279
0.00242821
0.00231938
0.00214799
0.00189349
0.00155275
0.000945088
0.000151656
0.00280874
0.00273975
0.00266232
0.00258994
0.00252253
0.00242885
0.00227949
0.00207509
0.00181355
0.00150741
0.000972512
0.000144319
0.0028743
0.00280386
0.00271924
0.00263991
0.00254759
0.00241889
0.00224091
0.00202117
0.0017682
0.00148708
0.00100697
0.000143136
0.00293453
0.00285372
0.00276798
0.00267467
0.00255704
0.00240101
0.00220454
0.00197845
0.00173069
0.00144772
0.00100537
0.000142081
0.00296532
0.00287891
0.00279062
0.0026825
0.00254326
0.00236646
0.00215617
0.00192235
0.00166706
0.00136881
0.000954745
0.000139384
0.00293849
0.00285655
0.00276591
0.00264559
0.00248927
0.00229571
0.00207174
0.0018254
0.00155545
0.00124409
0.000862615
0.0001353
0.0028242
0.00275418
0.00266384
0.00253564
0.00236734
0.00216063
0.0019243
0.00166683
0.00138835
0.00107746
0.000735435
0.000129437
0.00257288
0.00252137
0.00243647
0.00230693
0.00213486
0.00192323
0.00168446
0.00142909
0.00116017
0.000871959
0.000577422
0.000120961
0.00209873
0.00207194
0.00200157
0.00188249
0.00172405
0.00152853
0.0013139
0.00108898
0.000860228
0.000623353
0.000392162
0.000108846
0.00125662
0.00125235
0.00121189
0.00113065
0.00102912
0.00089731
0.000759699
0.000612426
0.000468031
0.000324542
0.000178478
9.09832e-05
0.000146615
0.000143844
0.000138718