/*--------------------------------*- C++ -*----------------------------------*\
| =========                 |                                                 |
| \\      /  F ield         | OpenFOAM: The Open Source CFD Toolbox           |
|  \\    /   O peration     | Version:  4.0                                   |
|   \\  /    A nd           | Web:      www.OpenFOAM.org                      |
|    \\/     M anipulation  |                                                 |
\*---------------------------------------------------------------------------*/
FoamFile
{
    version     2.0;
    format      ascii;
    class       volScalarField;
    location    "100";
    object      p;
}
// * * * * * * * * * * * * * * * * * * * * * * * * * * * * * * * * * * * * * //

dimensions      [0 2 -2 0 0 0 0];

internalField   nonuniform List<scalar> 
3072
(
0.00738127
-0.374877
-0.604837
-0.709138
-0.642209
-0.413447
-0.59956
-1.67114
-2.97102
-4.37225
-5.51839
-6.31916
0.732227
0.417848
0.30992
0.277838
0.61095
1.66858
2.26827
2.384
2.20098
1.87189
1.53709
1.22799
2.03821
1.80735
2.01285
2.31248
2.59557
2.97623
3.15846
3.10857
2.94629
2.70814
2.44803
2.22803
3.52393
3.523
3.87219
4.2303
4.52295
4.70952
4.76321
4.78955
4.73915
4.63754
4.50941
4.39137
4.62141
4.89756
5.33874
5.74673
6.05908
6.25996
6.35153
6.37426
6.31817
6.20945
6.07058
5.92978
5.58985
6.15063
6.6674
7.14501
7.47801
7.68084
7.76774
7.7671
7.69208
7.5667
7.41271
7.25218
6.62688
7.40598
7.97199
8.49205
8.83152
9.0177
9.07644
9.04123
8.93479
8.77948
8.59681
8.40647
7.75526
8.72355
9.3301
9.82945
10.1326
10.2731
10.2851
10.2055
10.0612
9.87441
9.66531
9.45122
9.00117
10.0637
10.686
11.1226
11.3553
11.4268
11.3805
11.2554
11.0783
10.8689
10.643
10.4133
10.2616
11.4409
12.0263
12.3439
12.4734
12.4603
12.3544
12.1911
11.9942
11.7768
11.5473
11.3127
11.5162
12.8185
13.3432
13.477
13.4696
13.3575
13.1972
13.0128
12.8154
12.6103
12.3953
12.1706
12.4536
14.3324
14.598
14.4669
14.3126
14.1042
13.9043
13.7216
13.5495
13.3819
13.2027
13.0038
-6.67555
-6.56949
-5.98673
-4.94176
-3.47341
-1.65116
0.40711
2.5242
4.5092
6.25767
7.19522
6.90501
1.05416
1.03634
1.21931
1.61214
2.22486
3.03225
3.98869
4.98462
5.93024
6.98165
7.47143
6.40063
2.10772
2.1296
2.32822
2.69321
3.19895
3.82508
4.51813
5.17147
5.69378
6.22263
6.3833
4.73397
4.31514
4.30558
4.3787
4.53578
4.77733
5.08767
5.4277
5.71966
5.86738
5.8851
5.77971
3.56233
5.81359
5.73393
5.70908
5.75437
5.86407
6.02047
6.19235
6.31985
6.30949
6.08602
5.77883
3.38566
7.09835
6.96929
6.89253
6.87845
6.91796
7.00376
7.11232
7.19587
7.17745
6.98548
6.64185
4.32866
8.22037
8.0637
7.95367
7.89884
7.90676
7.9777
8.09876
8.23094
8.31596
8.25991
8.07692
6.37074
9.24296
9.06241
8.92639
8.8509
8.85305
8.94692
9.13215
9.38325
9.66859
9.90779
10.1741
9.22302
10.1886
9.98846
9.83363
9.74436
9.74981
9.88015
10.1519
10.5511
11.0841
11.7019
12.5999
12.9063
11.0826
10.8683
10.6949
10.589
10.5929
10.7538
11.1044
11.6417
12.4216
13.4327
15.1798
17.0845
11.9436
11.7195
11.5261
11.3962
11.3854
11.5531
11.9376
12.5547
13.5083
14.8303
17.4614
21.2604
12.7904
12.5609
12.3466
12.1831
12.1367
12.2698
12.608
13.2286
14.1753
15.5403
18.308
23.3201
0.00767861
-0.371783
-0.60012
-0.703183
-0.633637
-0.406367
-0.601852
-1.6734
-2.96893
-4.36161
-5.49952
-6.29242
0.730029
0.420711
0.314867
0.286228
0.627198
1.68158
2.27091
2.38373
2.19906
1.87221
1.54002
1.23536
2.02823
1.80145
2.00997
2.31045
2.59696
2.97701
3.15731
3.10871
2.9478
2.71281
2.45577
2.23906
3.51005
3.51252
3.86412
4.22316
4.51689
4.70421
4.75981
4.78793
4.73927
4.64019
4.51474
4.39952
4.60588
4.88484
5.32756
5.73648
6.0499
6.2522
6.34555
6.3702
6.31633
6.2103
6.07403
5.93596
5.57408
6.13732
6.65484
7.13307
7.46689
7.67107
7.75969
7.76122
7.68882
7.56613
7.41503
7.25711
6.61175
7.39257
7.9592
8.47942
8.81927
9.00657
9.067
9.03409
8.93024
8.77795
8.59808
8.41104
7.74006
8.71084
9.31764
9.81666
10.1199
10.2613
10.2749
10.1974
10.0558
9.87188
9.66578
9.45483
8.98737
10.0521
10.6743
11.1102
11.3427
11.4149
11.37
11.2469
11.0724
10.8658
10.6426
10.4158
10.2492
11.4305
12.0151
12.3322
12.4614
12.4488
12.3442
12.1828
11.9881
11.7732
11.5461
11.314
11.5055
12.8081
13.3329
13.4659
13.4584
13.347
13.188
13.0052
12.8097
12.6065
12.3935
12.1707
12.4445
14.3228
14.5883
14.457
14.3027
14.0951
13.8965
13.7152
13.5446
13.3783
13.2004
13.0029
-6.64348
-6.53413
-5.95136
-4.90914
-3.44674
-1.63258
0.416024
2.52315
4.49899
6.23917
7.17064
6.88074
1.06513
1.05026
1.23431
1.62658
2.23647
3.03975
3.99054
4.98049
5.92046
6.96673
7.45213
6.38276
2.12161
2.14556
2.34475
2.70882
3.21233
3.83495
4.52356
5.17217
5.69029
6.21546
6.37355
4.72611
4.32579
4.31806
4.3923
4.54955
4.79003
5.0982
5.43523
5.72382
5.86846
5.88391
5.77726
3.56194
5.82192
5.74539
5.7223
5.76848
5.87734
6.03252
6.20186
6.32702
6.31398
6.08899
5.78053
3.38922
7.10679
6.9803
6.90559
6.8916
6.93141
7.01565
7.12288
7.20366
7.18338
6.98898
6.64433
4.3321
8.228
8.07365
7.96521
7.91156
7.91926
7.98959
8.10865
8.23894
8.32114
8.26318
8.07791
6.37052
9.24954
9.07113
8.93694
8.86237
8.86476
8.95767
9.14127
9.38985
9.67238
9.90893
10.1718
9.21758
10.1939
9.99583
9.84265
9.75448
9.76016
9.88972
10.1596
10.5563
11.0861
11.7001
12.594
12.8946
11.0861
10.8739
10.7021
10.5974
10.6017
10.7619
11.1106
11.6454
12.4216
13.4295
15.1699
17.0671
11.9456
11.7232
11.5314
11.4027
11.3925
11.5595
11.9424
12.5574
13.5077
14.8252
17.4499
21.2394
12.7908
12.5628
12.3498
12.1876
12.1421
12.2744
12.6116
13.2309
14.1745
15.5367
18.298
23.3042
0.00802954
-0.372402
-0.601391
-0.704762
-0.634754
-0.407514
-0.607848
-1.68734
-2.9916
-4.39275
-5.53756
-6.33538
0.730122
0.420036
0.313877
0.284843
0.628021
1.68475
2.27241
2.38278
2.19411
1.86308
1.52655
1.2183
2.03075
1.80309
2.01209
2.31238
2.59899
2.97832
3.15622
3.10456
2.93993
2.70117
2.44057
2.22097
3.5153
3.51753
3.86966
4.22853
4.52128
4.70648
4.75959
4.785
4.73323
4.6311
4.50274
4.38506
4.61246
4.89156
5.33487
5.74344
6.05559
6.25587
6.34676
6.36858
6.31164
6.20246
6.06336
5.92281
5.58098
6.14552
6.66363
7.14159
7.47396
7.67599
7.76198
7.76054
7.68487
7.55908
7.40493
7.24457
6.61928
7.40304
7.96903
8.48888
8.82743
9.01256
9.07021
9.03411
8.92693
8.77118
8.58829
8.39799
7.752
8.71796
9.32795
9.82704
10.129
10.2681
10.2788
10.1981
10.0529
9.86557
9.65621
9.44192
8.99488
10.0658
10.6866
11.1216
11.3524
11.4222
11.3744
11.248
11.0701
10.86
10.6336
10.4034
10.2617
11.4413
12.0272
12.3437
12.4711
12.4561
12.3486
12.1841
11.9863
11.7681
11.5378
11.3024
11.5171
12.8199
13.3446
13.4766
13.4672
13.3535
13.1919
13.0065
12.8084
12.6023
12.3862
12.1603
12.4554
14.3344
14.6
14.4667
14.3099
14.1001
13.8995
13.7163
13.5438
13.3751
13.1944
12.9939
-6.68882
-6.57907
-5.99304
-4.9447
-3.47378
-1.64943
0.410119
2.5278
4.51283
6.26065
7.19784
6.90765
1.0456
1.02988
1.21494
1.61013
2.22464
3.03382
3.99126
4.98781
5.93368
6.98455
7.47363
6.40296
2.10149
2.12483
2.32489
2.69125
3.19836
3.82575
4.51978
5.17383
5.69663
6.22535
6.38541
4.73623
4.30948
4.30089
4.37511
4.53348
4.7763
5.08788
5.42899
5.72172
5.86997
5.88799
5.78222
3.56513
5.80722
5.72866
5.70507
5.75154
5.86243
6.02008
6.19311
6.32156
6.312
6.08919
5.78205
3.38934
7.09128
6.9632
6.88752
6.87452
6.91532
7.00252
7.1124
7.19723
7.18
6.98914
6.64614
4.33392
8.21222
8.05623
7.94718
7.89351
7.90285
7.97538
8.0981
8.23193
8.31863
8.26415
8.08262
6.37766
9.23374
9.05369
8.91847
8.84411
8.84777
8.9435
9.13074
9.38395
9.67141
9.91268
10.1813
9.23244
10.1784
9.9785
9.82431
9.73612
9.74322
9.87573
10.1498
10.5516
11.0872
11.7074
12.6088
12.9185
11.0716
10.8573
10.6843
10.5794
10.5851
10.7484
11.1018
11.6421
12.425
13.4386
15.1899
17.099
11.9323
11.7078
11.5145
11.3855
11.3764
11.5467
11.9339
12.5548
13.5118
14.8361
17.4714
21.274
12.7792
12.549
12.3343
12.1715
12.1268
12.2622
12.6028
13.2274
14.1778
15.5449
18.316
23.3269
0.00238422
-0.377436
-0.606684
-0.709852
-0.64148
-0.413061
-0.601063
-1.67213
-2.97018
-4.36807
-5.51085
-6.30838
0.723198
0.412337
0.306179
0.277734
0.612729
1.66871
2.26588
2.38074
2.19775
1.86997
1.53682
1.23005
2.02053
1.79213
1.99915
2.30111
2.5864
2.96845
3.15176
3.10299
2.94209
2.70595
2.44789
2.22992
3.50353
3.50444
3.85621
4.21619
4.51038
4.69835
4.75352
4.78153
4.73296
4.63341
4.50739
4.39146
4.60243
4.87943
5.32227
5.73152
6.04505
6.24721
6.34019
6.36463
6.31047
6.20394
6.06716
5.92869
5.57196
6.13302
6.6508
7.1293
7.46312
7.66706
7.75535
7.75646
7.68357
7.56036
7.40883
7.25056
6.6095
7.38892
7.95565
8.47629
8.81629
9.00341
9.06346
9.03007
8.9257
8.7729
8.59264
8.40531
7.73809
8.70689
9.31407
9.81391
10.1175
10.2587
10.272
10.1941
10.0519
9.86762
9.66118
9.45002
8.98476
10.0478
10.6707
11.1077
11.3406
11.4128
11.3676
11.2441
11.0692
10.8622
10.6388
10.4119
10.2459
11.4258
12.0114
12.3298
12.4596
12.447
12.3422
12.1804
11.9854
11.7703
11.5431
11.311
11.5016
12.8033
13.3292
13.4637
13.4567
13.3453
13.1861
13.003
12.8073
12.604
12.391
12.1685
12.4412
14.3179
14.5846
14.4548
14.3011
14.0935
13.8945
13.713
13.5421
13.3758
13.1983
13.0012
-6.66259
-6.55544
-5.97323
-4.9303
-3.46552
-1.64764
0.405821
2.51841
4.49977
6.24588
7.18215
6.89185
1.0581
1.04168
1.22487
1.61693
2.22763
3.0324
3.98553
4.97817
5.92101
6.97106
7.4595
6.38871
2.1113
2.13441
2.33339
2.69783
3.20218
3.82619
4.51667
5.16727
5.68719
6.2145
6.37492
4.72543
4.31712
4.30895
4.38294
4.54017
4.78094
5.08971
5.42767
5.71743
5.86321
5.87948
5.7742
3.55685
5.81435
5.73721
5.71368
5.7597
5.86864
6.02402
6.19384
6.31967
6.30734
6.08282
5.77517
3.38189
7.09991
6.97297
6.898
6.88388
6.92357
7.00781
7.11524
7.19644
7.17663
6.9826
6.63837
4.32388
8.22202
8.06754
7.95886
7.90501
7.91253
7.98274
8.10186
8.23238
8.31488
8.25695
8.07161
6.3636
9.24459
9.06616
8.93185
8.85713
8.85931
8.95201
9.13557
9.38432
9.66713
9.90375
10.1664
9.21151
10.19
9.99209
9.83891
9.75062
9.756
9.8852
10.1549
10.5518
11.0821
11.6963
12.5898
12.8903
11.0834
10.8714
10.6997
10.5949
10.5987
10.7584
11.1069
11.6419
12.4186
13.4274
15.1675
17.0653
11.9438
11.7217
11.5301
11.4013
11.3906
11.557
11.9396
12.5544
13.5056
14.8248
17.4501
21.2426
12.7897
12.5621
12.3493
12.187
12.1409
12.2728
12.6099
13.2286
14.1728
15.5378
18.3008
23.313
15.1254
15.6544
15.4421
15.0959
14.8621
14.656
14.4799
14.3319
14.2094
14.1047
13.981
13.8232
14.6262
14.5309
14.703
14.7803
14.8691
14.9017
14.8875
14.8469
14.8112
14.7981
14.7426
14.6419
13.6736
13.778
14.1009
14.4089
14.7145
14.9691
15.1521
15.2572
15.3474
15.4288
15.4649
15.4685
12.5834
12.8564
13.3668
13.9728
14.5532
15.0334
15.41
15.7021
15.9561
16.1754
16.3704
16.5798
13.6368
13.4057
13.1651
12.9519
12.8438
12.8888
13.1133
13.6358
14.3562
15.3721
16.4217
18.7282
14.4932
14.2627
13.9875
13.7047
13.5025
13.406
13.5091
13.8269
14.2324
14.9231
15.1509
15.941
15.3895
15.1566
14.8354
14.4464
14.1312
13.9296
13.8484
13.7776
13.7758
14.0792
13.9827
14.2545
16.6884
16.3017
15.8541
15.3741
14.9008
14.3931
13.8826
13.4287
13.0437
12.9108
12.6137
12.7225
15.1158
15.6466
15.4351
15.0883
14.8544
14.6491
14.4739
14.327
14.2057
14.1016
13.9786
13.8215
14.6179
14.5239
14.6979
14.7759
14.8652
14.8982
14.8841
14.8439
14.8087
14.7957
14.7402
14.6396
13.6655
13.7719
14.0978
14.4071
14.7134
14.9682
15.1513
15.2559
15.3463
15.4269
15.4624
15.4658
12.576
12.8514
13.3657
13.9746
14.5558
15.0354
15.4115
15.7041
15.9576
16.1749
16.3687
16.5774
13.6359
13.4059
13.1664
12.9545
12.8473
12.8918
13.1162
13.638
14.3566
15.3704
16.4197
18.7249
14.4912
14.2614
13.9869
13.7052
13.5038
13.407
13.5113
13.8286
14.2334
14.9246
15.154
15.9449
15.3867
15.1539
14.833
14.4448
14.1301
13.9285
13.8494
13.7794
13.7791
14.0835
13.9891
14.2618
16.6849
16.297
15.8495
15.3701
14.8971
14.3904
13.8818
13.4305
13.0488
12.9188
12.6243
12.7331
15.1247
15.6564
15.4439
15.0955
14.8597
14.6526
14.476
14.3279
14.2056
14.0997
13.974
13.8141
14.6266
14.5327
14.7054
14.7814
14.8685
14.9002
14.8854
14.8447
14.8098
14.7952
14.7372
14.6338
13.6742
13.7794
14.1028
14.4101
14.7147
14.9691
15.1524
15.2573
15.3488
15.4288
15.4617
15.462
12.5855
12.8578
13.3681
13.9737
14.5537
15.0345
15.4122
15.7064
15.9616
16.1798
16.3714
16.576
13.6262
13.3938
13.1525
12.9397
12.8329
12.8797
13.1066
13.6321
14.356
15.3744
16.4246
18.7315
14.4835
14.2511
13.9745
13.6918
13.4904
13.3947
13.5014
13.8214
14.229
14.9219
15.1497
15.9414
15.381
15.1456
14.8222
14.4326
14.1186
13.9175
13.8382
13.7679
13.7686
14.0744
13.9795
14.2544
16.6805
16.2908
15.8412
15.3605
14.8861
14.3779
13.8675
13.4155
13.0333
12.9038
12.6097
12.7224
15.1127
15.6437
15.4334
15.0869
14.8529
14.6473
14.4719
14.3247
14.203
14.0991
13.9765
13.8201
14.6169
14.5236
14.6981
14.7758
14.8642
14.8965
14.8819
14.8413
14.8056
14.7927
14.7379
14.6382
13.6658
13.7731
14.0992
14.4079
14.713
14.9666
15.1487
15.253
15.3426
15.4235
15.4598
15.4642
12.578
12.8549
13.3692
13.9766
14.5559
15.0335
15.4082
15.6996
15.9524
16.1704
16.3652
16.5753
13.6351
13.4056
13.1665
12.9544
12.8466
12.891
13.115
13.6367
14.3556
15.3716
16.4227
18.7297
14.4906
14.2613
13.9874
13.7056
13.504
13.4076
13.5106
13.8281
14.2335
14.9261
15.157
15.9478
15.3858
15.1538
14.8338
14.4458
14.131
13.93
13.8502
13.7809
13.7801
14.0851
13.9912
14.2631
16.684
16.297
15.8503
15.3713
14.8995
14.3938
13.8858
13.434
13.0508
12.92
12.6255
12.7326
12.4701
12.7634
13.2665
13.9006
14.5529
15.1062
15.5186
15.8453
16.0988
16.2864
16.4265
16.6293
13.0637
13.2999
13.7048
14.2134
14.7174
15.1743
15.5164
15.76
15.942
16.053
16.0983
16.2488
13.5944
13.8044
14.1469
14.5528
14.9638
15.3183
15.5766
15.7523
15.869
15.9229
15.9192
16.0282
14.0763
14.2612
14.5502
14.8826
15.2034
15.46
15.6385
15.7531
15.8195
15.8306
15.7887
15.7912
16.9766
16.8425
16.4862
15.9278
15.3535
14.7907
14.2113
13.6528
13.1266
12.7792
12.4112
12.4174
16.6991
16.6402
16.3916
15.9915
15.5518
15.1103
14.64
14.1739
13.7271
13.3928
13.0818
13.026
16.5922
16.5951
16.4044
16.1062
15.7498
15.3727
14.9712
14.5694
14.1834
13.8793
13.622
13.5558
16.5599
16.5981
16.4441
16.2074
15.9134
15.5928
15.2504
14.9064
14.5767
14.3105
14.0979
14.0353
12.4651
12.7604
13.2667
13.9037
14.5571
15.1093
15.5209
15.8477
16.0996
16.286
16.4248
16.627
13.0604
13.2989
13.7063
14.2166
14.7213
15.1775
15.5184
15.7615
15.9423
16.052
16.0963
16.247
13.5938
13.8056
14.1494
14.5566
14.9678
15.3214
15.5784
15.7531
15.8688
15.9216
15.9173
16.0265
14.0779
14.264
14.5542
14.8865
15.2068
15.4625
15.6398
15.7535
15.8188
15.829
15.7868
15.7902
16.9737
16.8384
16.4813
15.923
15.3491
14.7873
14.2096
13.6539
13.131
12.7869
12.4211
12.4274
16.6972
16.6374
16.3879
15.9877
15.5482
15.1073
14.6382
14.1743
13.7301
13.3983
13.0894
13.0337
16.5901
16.5926
16.4012
16.1028
15.7464
15.3697
14.9691
14.5689
14.185
13.8831
13.6272
13.5613
16.5575
16.5955
16.4412
16.2043
15.9102
15.5896
15.2479
14.9052
14.577
14.3124
14.1012
14.0387
12.4732
12.7654
13.2681
13.9019
14.5542
15.1075
15.5213
15.8505
16.1039
16.2914
16.4289
16.6276
13.0667
13.3027
13.7072
14.2155
14.7196
15.1767
15.5194
15.7645
15.9467
16.0572
16.1008
16.2486
13.5981
13.8078
14.1499
14.5556
14.9666
15.3212
15.5798
15.7563
15.8732
15.9269
15.9224
16.0294
14.0803
14.265
14.5537
14.8856
15.2059
15.4626
15.6413
15.7566
15.8234
15.8347
15.7928
15.7953
16.9708
16.8337
16.4746
15.9137
15.3388
14.7756
14.1958
13.6388
13.1149
12.7708
12.4063
12.4165
16.695
16.6322
16.3816
15.9796
15.5391
15.0972
14.6266
14.1615
13.7164
13.3848
13.0767
13.0241
16.5884
16.5877
16.3953
16.0956
15.7383
15.3607
14.959
14.5579
14.1733
13.8715
13.6166
13.5529
16.556
16.5912
16.4358
16.1976
15.9027
15.5816
15.2392
14.8956
14.567
14.3025
14.0919
14.0313
12.467
12.7638
13.27
13.9055
14.5571
15.1074
15.5175
15.8432
16.0951
16.2815
16.4211
16.6245
13.0607
13.3004
13.7078
14.2171
14.7204
15.1752
15.515
15.7573
15.9381
16.0481
16.093
16.2445
13.5927
13.8054
14.1493
14.5557
14.9659
15.3186
15.5748
15.7492
15.8649
15.9179
15.914
16.0238
14.0754
14.2623
14.5526
14.8845
15.2043
15.4594
15.6363
15.7498
15.8151
15.8254
15.7835
15.7869
16.9723
16.8378
16.4818
15.9246
15.3515
14.7905
14.2136
13.6575
13.1332
12.7877
12.4215
12.426
16.6955
16.6363
16.3878
15.9884
15.5495
15.1093
14.6407
14.1763
13.731
13.3979
13.0885
13.0318
16.5886
16.5915
16.4009
16.103
15.7472
15.371
14.9707
14.5701
14.185
13.8818
13.6251
13.5582
16.5562
16.5947
16.4406
16.2042
15.9105
15.5905
15.249
14.9058
14.5765
14.3106
14.0984
14.0348
14.533
14.6978
14.9216
15.1696
15.3909
15.5576
15.6703
15.7388
15.7704
15.7527
15.6935
15.627
14.937
15.0666
15.2295
15.3934
15.5259
15.6215
15.6823
15.7167
15.7283
15.7073
15.6617
15.6319
15.2619
15.3602
15.464
15.5555
15.6199
15.6594
15.681
15.6916
15.6924
15.6762
15.6473
15.6362
15.5147
15.5803
15.6347
15.6696
15.6809
15.678
15.6717
15.6667
15.6634
15.6554
15.6436
15.6449
15.7038
15.7406
15.7556
15.7469
15.7189
15.6856
15.6601
15.6459
15.6425
15.6433
15.6459
15.6563
15.8419
15.8551
15.8398
15.7996
15.7434
15.6888
15.6508
15.6315
15.6298
15.6382
15.6522
15.6687
15.9428
15.9374
15.9005
15.8378
15.7618
15.6925
15.6464
15.6241
15.6242
15.6384
15.6609
15.6808
16.0193
16.0002
15.9477
15.8691
15.7791
15.6994
15.6476
15.6226
15.6237
15.6421
15.6706
15.6917
16.0823
16.0531
15.9893
15.8992
15.7986
15.7106
15.6541
15.6257
15.6263
15.6471
15.6796
15.7006
16.1463
16.111
16.038
15.9371
15.8254
15.7282
15.6653
15.6311
15.6288
15.6506
15.6855
15.7067
16.2289
16.1917
16.1098
15.9942
15.8664
15.7543
15.6806
15.6368
15.6299
15.6519
15.6893
15.709
16.3004
16.2598
16.171
16.0481
15.9101
15.7871
15.6968
15.6476
15.6358
15.6551
15.6899
15.7089
16.7502
16.6617
16.4951
16.2998
16.0518
15.7775
15.4858
15.1943
14.9191
14.6977
14.5306
14.4847
16.8445
16.7141
16.5545
16.3856
16.1711
15.9328
15.6826
15.436
15.2095
15.0324
14.9098
14.8865
16.9182
16.7609
16.618
16.4646
16.2742
16.063
15.8453
15.6353
15.4495
15.3103
15.2238
15.2146
16.9587
16.8024
16.6778
16.5352
16.3627
16.1717
15.9788
15.7977
15.6436
15.5344
15.474
15.4745
16.9821
16.8367
16.7319
16.5969
16.4377
16.2615
16.0873
15.9282
15.7978
15.7104
15.6682
15.6739
16.9876
16.8619
16.7785
16.6493
16.5001
16.335
16.1746
16.0322
15.9193
15.847
15.8163
15.823
16.9809
16.8798
16.8168
16.6924
16.5505
16.394
16.2444
16.1149
16.0149
15.9527
15.9291
15.9342
16.9658
16.8897
16.8464
16.7262
16.5893
16.4399
16.2993
16.1805
16.0908
16.0358
16.0165
16.0188
16.9466
16.8937
16.866
16.749
16.6151
16.4725
16.3405
16.2322
16.1518
16.1026
16.0871
16.0873
16.9293
16.8925
16.8699
16.7563
16.6247
16.4897
16.368
16.2722
16.2025
16.1603
16.1512
16.1531
16.9205
16.8875
16.8558
16.7473
16.6183
16.4922
16.3834
16.3035
16.2472
16.2178
16.2204
16.2312
16.9196
16.8806
16.8402
16.7393
16.6147
16.4964
16.3978
16.3252
16.2839
16.2712
16.2822
16.3001
14.5365
14.7017
14.9258
15.1732
15.3938
15.5595
15.6713
15.7389
15.7695
15.7512
15.6918
15.6262
14.9409
15.0704
15.2333
15.3965
15.5282
15.6229
15.6831
15.7167
15.7275
15.7061
15.6604
15.6312
15.266
15.3637
15.4668
15.5579
15.6216
15.6605
15.6816
15.6916
15.6918
15.6754
15.6464
15.6357
15.5184
15.583
15.6368
15.6712
15.6822
15.6789
15.6723
15.667
15.6632
15.655
15.6431
15.6447
15.7068
15.7426
15.7569
15.748
15.7198
15.6864
15.6608
15.6464
15.6427
15.6433
15.6458
15.6563
15.8442
15.8563
15.8405
15.8001
15.7441
15.6896
15.6517
15.6323
15.6304
15.6386
15.6524
15.6689
15.9444
15.938
15.9006
15.8379
15.7622
15.6932
15.6474
15.6251
15.625
15.6391
15.6612
15.6811
16.0201
16
15.9472
15.8688
15.7792
15.7
15.6486
15.6238
15.6247
15.6429
15.671
15.6919
16.0825
16.0525
15.9884
15.8985
15.7986
15.7112
15.6551
15.6268
15.6274
15.648
15.68
15.7008
16.146
16.1097
16.0365
15.936
15.825
15.7285
15.6663
15.6322
15.6299
15.6515
15.686
15.7068
16.228
16.1897
16.1075
15.9924
15.8656
15.7543
15.6813
15.6379
15.631
15.6528
15.6896
15.709
16.299
16.2573
16.1683
16.0459
15.9089
15.7868
15.6974
15.6486
15.6368
15.6558
15.6901
15.7089
16.7477
16.6593
16.4925
16.297
16.0487
15.7743
15.4831
15.1925
14.9184
14.6982
14.5321
14.4863
16.8423
16.7119
16.5522
16.383
16.1682
15.9297
15.6798
15.4339
15.2082
15.0319
14.9101
14.887
16.9164
16.7591
16.6159
16.4622
16.2715
16.0601
15.8425
15.6331
15.4478
15.3094
15.2235
15.2148
16.9573
16.8009
16.6761
16.5331
16.3602
16.169
15.9762
15.7955
15.6419
15.5333
15.4738
15.4747
16.9811
16.8355
16.7304
16.595
16.4354
16.2591
16.0849
15.9261
15.7962
15.7095
15.6681
15.6744
16.987
16.861
16.7773
16.6476
16.4981
16.3328
16.1725
16.0304
15.9179
15.8463
15.8165
15.824
16.9805
16.8792
16.8159
16.691
16.5487
16.3921
16.2425
16.1133
16.0138
15.9524
15.9297
15.9357
16.9656
16.8894
16.8457
16.725
16.5878
16.4383
16.2977
16.1792
16.09
16.0358
16.0175
16.0209
16.9465
16.8936
16.8655
16.7479
16.6138
16.4711
16.3391
16.2312
16.1514
16.1031
16.0886
16.09
16.9292
16.8926
16.8696
16.7554
16.6235
16.4883
16.3668
16.2714
16.2024
16.1611
16.1531
16.1562
16.9204
16.8876
16.8556
16.7464
16.6172
16.491
16.3823
16.3029
16.2474
16.2189
16.2228
16.2349
16.9195
16.8807
16.8401
16.7386
16.6137
16.4954
16.397
16.3249
16.2843
16.2729
16.2851
16.3046
14.5374
14.7018
14.9252
15.1723
15.3931
15.5596
15.6727
15.7419
15.7741
15.7572
15.6984
15.6326
14.9414
15.0704
15.2328
15.3959
15.5278
15.6231
15.6844
15.7195
15.7319
15.7119
15.6669
15.6374
15.2662
15.3639
15.467
15.5577
15.6214
15.6607
15.6827
15.6941
15.6959
15.6807
15.6525
15.6417
15.5189
15.5838
15.6375
15.6715
15.6822
15.6791
15.6732
15.6691
15.6668
15.6599
15.6488
15.6503
15.7079
15.7441
15.7581
15.7487
15.7199
15.6866
15.6615
15.6483
15.6459
15.6478
15.651
15.6615
15.846
15.8584
15.8423
15.8012
15.7445
15.6898
15.6522
15.634
15.6333
15.6427
15.6572
15.6739
15.9467
15.9407
15.9029
15.8395
15.7629
15.6936
15.6479
15.6266
15.6276
15.6429
15.6658
15.6859
16.0231
16.0034
15.9501
15.8708
15.7802
15.7006
15.6492
15.6253
15.6272
15.6466
15.6755
15.6966
16.0859
16.0564
15.9918
15.901
15.7998
15.7122
15.6557
15.6286
15.6296
15.6517
15.6844
15.7054
16.1501
16.1142
16.0406
15.939
15.8268
15.7297
15.6672
15.6339
15.6323
15.6551
15.6903
15.7115
16.233
16.1952
16.1125
15.9963
15.868
15.7559
15.6825
15.6395
15.6334
15.6564
15.6941
15.7138
16.3047
16.2636
16.1741
16.0505
15.9119
15.7889
15.6988
15.6504
15.6393
15.6596
15.6946
15.7137
16.7446
16.6546
16.4871
16.2906
16.0418
15.767
15.4752
15.1841
14.9096
14.6895
14.5241
14.4798
16.8382
16.7068
16.5467
16.3768
16.1616
15.9229
15.6725
15.4262
15.2003
15.0242
14.9028
14.8809
16.9116
16.7536
16.6102
16.4561
16.2651
16.0535
15.8356
15.6259
15.4405
15.3021
15.2166
15.2086
16.952
16.7952
16.6702
16.527
16.3539
16.1626
15.9696
15.7886
15.6349
15.5264
15.4668
15.4683
16.9754
16.8295
16.7244
16.5889
16.4292
16.2528
16.0784
15.9194
15.7894
15.7026
15.6612
15.6677
16.9809
16.8548
16.7711
16.6415
16.4919
16.3265
16.1661
16.0238
15.9111
15.8394
15.8094
15.8169
16.9741
16.8727
16.8096
16.6848
16.5425
16.3858
16.2361
16.1067
16.007
15.9453
15.9224
15.9282
16.9591
16.8827
16.8392
16.7187
16.5815
16.4319
16.2912
16.1726
16.0831
16.0286
16.0099
16.013
16.9398
16.8867
16.8589
16.7416
16.6074
16.4647
16.3326
16.2245
16.1443
16.0956
16.0808
16.0818
16.9224
16.8856
16.8628
16.7489
16.6171
16.4819
16.3602
16.2646
16.1952
16.1535
16.145
16.1476
16.9135
16.8805
16.8487
16.7399
16.6108
16.4845
16.3757
16.2961
16.24
16.2111
16.2144
16.2258
16.9127
16.8737
16.8332
16.732
16.6072
16.4888
16.3902
16.3178
16.2769
16.2647
16.2763
16.295
14.5327
14.6987
14.9231
15.1705
15.3909
15.5563
15.6679
15.7354
15.766
15.7477
15.6884
15.6226
14.9364
15.0667
15.2299
15.3934
15.5251
15.6198
15.6798
15.7133
15.7241
15.7025
15.6569
15.6276
15.261
15.3594
15.4631
15.5545
15.6185
15.6574
15.6784
15.6883
15.6884
15.6718
15.6428
15.6321
15.5131
15.5786
15.633
15.6678
15.6791
15.6759
15.6692
15.6637
15.6598
15.6515
15.6395
15.6411
15.7015
15.7382
15.7531
15.7446
15.7167
15.6834
15.6577
15.6432
15.6393
15.6397
15.6422
15.6527
15.839
15.8519
15.8368
15.7968
15.741
15.6865
15.6485
15.629
15.6269
15.635
15.6488
15.6654
15.9393
15.9336
15.8969
15.8346
15.7592
15.6902
15.6442
15.6217
15.6215
15.6355
15.6577
15.6776
16.0152
15.9958
15.9436
15.8655
15.7762
15.697
15.6454
15.6204
15.6212
15.6393
15.6675
15.6885
16.0776
16.0484
15.9848
15.8953
15.7956
15.7081
15.6519
15.6234
15.6239
15.6444
15.6765
15.6974
16.1413
16.1057
16.033
15.9329
15.8221
15.7255
15.6631
15.6289
15.6264
15.6479
15.6825
15.7035
16.2235
16.1859
16.1042
15.9895
15.8628
15.7514
15.6782
15.6345
15.6275
15.6492
15.6862
15.7058
16.2945
16.2536
16.1651
16.043
15.9061
15.7839
15.6943
15.6453
15.6333
15.6523
15.6867
15.7056
16.7469
16.6585
16.4918
16.2966
16.0488
15.7748
15.4837
15.1927
14.9175
14.6961
14.5289
14.4819
16.8414
16.711
16.5514
16.3824
16.168
15.93
15.6801
15.4337
15.2071
15.0295
14.9067
14.8825
16.9155
16.758
16.615
16.4615
16.2711
16.0601
15.8426
15.6326
15.4465
15.307
15.2202
15.2104
16.9562
16.7998
16.675
16.5323
16.3597
16.1688
15.976
15.7949
15.6404
15.5309
15.4706
15.4704
16.9798
16.8342
16.7293
16.5941
16.4348
16.2587
16.0845
15.9254
15.7947
15.7072
15.6651
15.6701
16.9855
16.8596
16.776
16.6467
16.4973
16.3323
16.1719
16.0295
15.9164
15.8441
15.8138
15.8199
16.9788
16.8776
16.8146
16.69
16.5479
16.3914
16.2417
16.1122
16.0122
15.9502
15.927
15.9317
16.9638
16.8876
16.8443
16.7239
16.5868
16.4374
16.2967
16.178
16.0884
16.0336
16.0148
16.0169
16.9446
16.8917
16.864
16.7468
16.6127
16.47
16.338
16.2298
16.1497
16.1008
16.0858
16.086
16.9273
16.8906
16.868
16.7541
16.6223
16.4872
16.3656
16.2699
16.2006
16.1587
16.1501
16.1521
16.9185
16.8856
16.8538
16.7451
16.616
16.4897
16.381
16.3012
16.2454
16.2163
16.2195
16.2305
16.9176
16.8787
16.8383
16.7372
16.6124
16.4941
16.3956
16.3231
16.282
16.27
16.2815
16.2999
)
;

boundaryField
{
    rotor
    {
        type            zeroGradient;
    }
    stator
    {
        type            zeroGradient;
    }
    front
    {
        type            empty;
    }
    back
    {
        type            empty;
    }
}


// ************************************************************************* //
