/*--------------------------------*- C++ -*----------------------------------*\
| =========                 |                                                 |
| \\      /  F ield         | OpenFOAM: The Open Source CFD Toolbox           |
|  \\    /   O peration     | Version:  4.0                                   |
|   \\  /    A nd           | Web:      www.OpenFOAM.org                      |
|    \\/     M anipulation  |                                                 |
\*---------------------------------------------------------------------------*/
FoamFile
{
    version     2.0;
    format      ascii;
    class       surfaceScalarField;
    location    "100";
    object      phi;
}
// * * * * * * * * * * * * * * * * * * * * * * * * * * * * * * * * * * * * * //

dimensions      [0 3 -1 0 0 0 0];

internalField   nonuniform List<scalar> 
5952
(
7.56839e-06
-7.87526e-06
1.243e-05
-4.85887e-06
1.22863e-05
1.41009e-07
6.79744e-06
5.49633e-06
-7.24073e-06
1.40346e-05
-3.04053e-05
2.31648e-05
-5.26847e-05
2.2276e-05
-7.13382e-05
1.86492e-05
-8.69086e-05
1.55683e-05
-9.95192e-05
1.26063e-05
-0.000109494
9.97431e-06
7.23064e-06
-0.000116728
4.3628e-07
-8.3191e-06
-6.38028e-06
1.95684e-06
-2.04155e-05
1.41747e-05
-3.87609e-05
2.38417e-05
-5.45392e-05
2.98124e-05
-6.3392e-05
3.20163e-05
-7.04575e-05
2.93403e-05
-7.76959e-05
2.58848e-05
-8.44824e-05
2.23535e-05
-9.05143e-05
1.86356e-05
-9.53053e-05
1.47646e-05
1.08699e-05
-9.89465e-05
-8.5126e-06
1.87271e-07
-2.09573e-05
1.4401e-05
-3.30836e-05
2.62999e-05
-4.35051e-05
3.42628e-05
-5.13312e-05
3.76378e-05
-5.67282e-05
3.74121e-05
-6.16467e-05
3.42577e-05
-6.64363e-05
3.06723e-05
-7.08263e-05
2.67422e-05
-7.47242e-05
2.25314e-05
-7.80523e-05
1.8092e-05
1.35295e-05
-8.07135e-05
-1.10352e-05
1.12196e-05
-2.11748e-05
2.45393e-05
-2.98202e-05
3.49445e-05
-3.64906e-05
4.09326e-05
-4.14169e-05
4.25632e-05
-4.51409e-05
4.11348e-05
-4.88062e-05
3.79218e-05
-5.23851e-05
3.42496e-05
-5.57626e-05
3.01187e-05
-5.88387e-05
2.56061e-05
-6.1513e-05
2.07656e-05
1.56537e-05
-6.36383e-05
-9.28184e-06
2.04954e-05
-1.67342e-05
3.19903e-05
-2.23151e-05
4.0524e-05
-2.64678e-05
4.50843e-05
-2.96088e-05
4.5703e-05
-3.23452e-05
4.38699e-05
-3.51563e-05
4.07318e-05
-3.79411e-05
3.70333e-05
-4.06338e-05
3.28104e-05
-4.31365e-05
2.81077e-05
-4.53318e-05
2.296e-05
1.74089e-05
-4.70882e-05
-6.24121e-06
2.67314e-05
-1.09523e-05
3.66983e-05
-1.39627e-05
4.35318e-05
-1.60575e-05
4.71766e-05
-1.77578e-05
4.74011e-05
-1.95072e-05
4.56171e-05
-2.14899e-05
4.27131e-05
-2.35994e-05
3.91413e-05
-2.57329e-05
3.4943e-05
-2.77672e-05
3.01408e-05
-2.9572e-05
2.47638e-05
1.88387e-05
-3.10027e-05
-3.26344e-06
2.99854e-05
-5.18933e-06
3.86177e-05
-5.96901e-06
4.43071e-05
-5.99881e-06
4.72019e-05
-6.18657e-06
4.75849e-05
-6.8497e-06
4.62773e-05
-7.99403e-06
4.38551e-05
-9.4518e-06
4.05973e-05
-1.1056e-05
3.65458e-05
-1.26402e-05
3.17236e-05
-1.40481e-05
2.6171e-05
1.9934e-05
-1.51447e-05
-9.42129e-08
3.00711e-05
1.49742e-07
3.83675e-05
1.79514e-06
4.26549e-05
3.70024e-06
4.52914e-05
5.00848e-06
4.62718e-05
5.46725e-06
4.58152e-05
5.16774e-06
4.41519e-05
4.34999e-06
4.14134e-05
3.25436e-06
3.76399e-05
2.09847e-06
3.28785e-05
1.06272e-06
2.72056e-05
2.07092e-05
2.86765e-07
1.64974e-06
2.84091e-05
4.5438e-06
3.54652e-05
8.85031e-06
3.83408e-05
1.27477e-05
4.13875e-05
1.55946e-05
4.34196e-05
1.72193e-05
4.41865e-05
1.77861e-05
4.3582e-05
1.7609e-05
4.15882e-05
1.70085e-05
3.82383e-05
1.6264e-05
3.36213e-05
1.559e-05
2.78779e-05
2.11567e-05
1.51413e-05
2.32294e-06
2.60844e-05
7.644e-06
3.01376e-05
1.49165e-05
3.10628e-05
2.09882e-05
3.53099e-05
2.54432e-05
3.89604e-05
2.82448e-05
4.13812e-05
2.96687e-05
4.21556e-05
3.01161e-05
4.11383e-05
2.99895e-05
3.83632e-05
2.96392e-05
3.39699e-05
2.93234e-05
2.81925e-05
2.1264e-05
2.92147e-05
1.34022e-06
2.4749e-05
1.23854e-05
1.90923e-05
2.20532e-05
2.13917e-05
2.96391e-05
2.77202e-05
3.51484e-05
3.34474e-05
3.87399e-05
3.77867e-05
4.08052e-05
4.00872e-05
4.17639e-05
4.01774e-05
4.20396e-05
3.8085e-05
4.20428e-05
3.39643e-05
4.20674e-05
2.8166e-05
2.10192e-05
4.23101e-05
2.46995e-05
4.85458e-08
3.38675e-05
9.92614e-06
3.96308e-05
1.56286e-05
4.40896e-05
2.32618e-05
4.74668e-05
3.00699e-05
5.00274e-05
3.52257e-05
5.17813e-05
3.83331e-05
5.27668e-05
3.9191e-05
5.31971e-05
3.76533e-05
5.34344e-05
3.37262e-05
5.3742e-05
2.78571e-05
5.43189e-05
2.04405e-05
-0.000121387
4.65973e-06
-0.000123383
1.99354e-06
-0.000122786
-5.96041e-07
-0.000119603
-3.18261e-06
-0.000113768
-5.83312e-06
-0.000105078
-8.68911e-06
-9.34308e-05
-1.16453e-05
-7.86729e-05
-1.47563e-05
-6.07315e-05
-1.79395e-05
-3.97395e-05
-2.09897e-05
-1.7212e-05
-2.25222e-05
-1.72104e-05
-0.000101286
6.99919e-06
-0.000102357
3.06352e-06
-0.00010202
-9.33033e-07
-0.000100101
-5.10164e-06
-9.63585e-05
-9.57424e-06
-9.06933e-05
-1.43527e-05
-8.29123e-05
-1.94249e-05
-7.28495e-05
-2.48175e-05
-6.02135e-05
-3.05738e-05
-4.45477e-05
-3.66531e-05
-2.56082e-05
-4.14589e-05
-4.28173e-05
-8.25519e-05
8.83735e-06
-8.3428e-05
3.93865e-06
-8.31357e-05
-1.22512e-06
-8.14994e-05
-6.73794e-06
-7.84142e-05
-1.26584e-05
-7.37652e-05
-1.90009e-05
-6.74127e-05
-2.5776e-05
-5.92147e-05
-3.30141e-05
-4.90404e-05
-4.07459e-05
-3.67169e-05
-4.89747e-05
-2.09145e-05
-5.72579e-05
-6.37299e-05
-6.50565e-05
1.02551e-05
-6.56238e-05
4.50507e-06
-6.52108e-05
-1.63834e-06
-6.37541e-05
-8.19501e-06
-6.1174e-05
-1.52382e-05
-5.74124e-05
-2.2762e-05
-5.24221e-05
-3.07658e-05
-4.61524e-05
-3.92821e-05
-3.84963e-05
-4.84001e-05
-2.92115e-05
-5.82559e-05
-1.73059e-05
-6.91591e-05
-8.10356e-05
-4.82483e-05
1.14144e-05
-4.86982e-05
4.95394e-06
-4.83635e-05
-1.97364e-06
-4.71994e-05
-9.36e-06
-4.51617e-05
-1.72755e-05
-4.22263e-05
-2.56976e-05
-3.83926e-05
-3.45979e-05
-3.36839e-05
-4.399e-05
-2.80641e-05
-5.4016e-05
-2.12558e-05
-6.50608e-05
-1.27046e-05
-7.77108e-05
-9.37399e-05
-3.19254e-05
1.23359e-05
-3.22894e-05
5.31753e-06
-3.2057e-05
-2.20722e-06
-3.11572e-05
-1.0259e-05
-2.95868e-05
-1.88464e-05
-2.73544e-05
-2.79274e-05
-2.45266e-05
-3.74256e-05
-2.12198e-05
-4.72926e-05
-1.75544e-05
-5.76811e-05
-1.36213e-05
-6.89928e-05
-8.54533e-06
-8.27847e-05
-0.000102285
-1.58629e-05
1.30538e-05
-1.61321e-05
5.58576e-06
-1.5905e-05
-2.43323e-06
-1.51668e-05
-1.09972e-05
-1.39217e-05
-2.00884e-05
-1.22201e-05
-2.96279e-05
-1.0197e-05
-3.94443e-05
-8.10166e-06
-4.93874e-05
-6.1993e-06
-5.95787e-05
-4.65289e-06
-7.05341e-05
-3.09374e-06
-8.43425e-05
-0.000105376
-1.64174e-07
1.3504e-05
-2.29141e-07
5.65073e-06
1.17105e-07
-2.77925e-06
8.71457e-07
-1.17495e-05
2.00842e-06
-2.12232e-05
3.4393e-06
-3.10545e-05
4.91837e-06
-4.092e-05
6.02018e-06
-5.04838e-05
6.26086e-06
-5.98122e-05
5.16401e-06
-6.94336e-05
2.62871e-06
-8.17985e-05
-0.00010274
1.501e-05
1.36341e-05
1.52564e-05
5.40363e-06
1.58902e-05
-3.41236e-06
1.6898e-05
-1.27558e-05
1.82445e-05
-2.25664e-05
1.97903e-05
-3.25959e-05
2.1141e-05
-4.22655e-05
2.16358e-05
-5.09714e-05
2.0541e-05
-5.87132e-05
1.69879e-05
-6.58668e-05
1.04775e-05
-7.52768e-05
-9.22597e-05
2.94557e-05
1.33922e-05
3.01134e-05
4.74534e-06
3.12196e-05
-4.5184e-06
3.27706e-05
-1.43054e-05
3.47277e-05
-2.452e-05
3.68783e-05
-3.47422e-05
3.86091e-05
-4.39903e-05
3.89785e-05
-5.13361e-05
3.70407e-05
-5.67641e-05
3.14761e-05
-6.03005e-05
2.06567e-05
-6.44506e-05
-7.15921e-05
4.29675e-05
1.27327e-05
4.41541e-05
3.55671e-06
4.59672e-05
-6.33222e-06
4.84252e-05
-1.67626e-05
5.14736e-05
-2.75665e-05
5.47616e-05
-3.80267e-05
5.73438e-05
-4.6568e-05
5.81121e-05
-5.20979e-05
5.60578e-05
-5.47101e-05
4.93688e-05
-5.36016e-05
3.40017e-05
-4.90754e-05
-3.75917e-05
5.54525e-05
1.15969e-05
5.73638e-05
1.64375e-06
6.02403e-05
-9.21037e-06
6.40887e-05
-2.06114e-05
6.8748e-05
-3.22251e-05
7.35742e-05
-4.28509e-05
7.71574e-05
-5.01494e-05
7.87051e-05
-5.36445e-05
7.73583e-05
-5.33576e-05
7.08885e-05
-4.71374e-05
5.4126e-05
-3.23134e-05
1.65375e-05
7.71719e-06
-7.72356e-06
1.24708e-05
-4.75238e-06
1.22639e-05
1.97411e-07
6.71583e-06
5.55229e-06
-7.40362e-06
1.41134e-05
-3.0552e-05
2.31481e-05
-5.27252e-05
2.217e-05
-7.13017e-05
1.85728e-05
-8.67926e-05
1.54891e-05
-9.93428e-05
1.25465e-05
-0.000109265
9.92141e-06
7.19084e-06
-0.000116459
4.39402e-07
-8.17287e-06
-6.38517e-06
2.06958e-06
-2.04469e-05
1.42557e-05
-3.87703e-05
2.38747e-05
-5.44631e-05
2.98051e-05
-6.32508e-05
3.19341e-05
-7.03113e-05
2.92293e-05
-7.75227e-05
2.57817e-05
-8.42856e-05
2.22508e-05
-9.0289e-05
1.85474e-05
-9.50579e-05
1.46894e-05
1.08114e-05
-9.86805e-05
-8.48154e-06
3.00475e-07
-2.09238e-05
1.45096e-05
-3.30397e-05
2.63693e-05
-4.34338e-05
3.42677e-05
-5.12174e-05
3.75871e-05
-5.65927e-05
3.73079e-05
-6.14986e-05
3.41337e-05
-6.62691e-05
3.055e-05
-7.06451e-05
2.66253e-05
-7.4528e-05
2.24282e-05
-7.78443e-05
1.80047e-05
1.34621e-05
-8.04968e-05
-1.10248e-05
1.132e-05
-2.11487e-05
2.46307e-05
-2.97728e-05
3.49916e-05
-3.64182e-05
4.09115e-05
-4.13194e-05
4.24867e-05
-4.50331e-05
4.102e-05
-4.86946e-05
3.77934e-05
-5.22663e-05
3.412e-05
-5.56361e-05
2.99937e-05
-5.87025e-05
2.5493e-05
-6.13676e-05
2.06686e-05
1.55774e-05
-6.34844e-05
-9.27347e-06
2.05861e-05
-1.67159e-05
3.20718e-05
-2.22825e-05
4.0556e-05
-2.64217e-05
4.50489e-05
-2.95532e-05
4.56166e-05
-3.22885e-05
4.37531e-05
-3.50991e-05
4.06029e-05
-3.78815e-05
3.69003e-05
-4.0569e-05
3.26802e-05
-4.30643e-05
2.79865e-05
-4.52508e-05
2.28538e-05
1.73223e-05
-4.69972e-05
-6.23341e-06
2.68159e-05
-1.09425e-05
3.67778e-05
-1.39479e-05
4.35577e-05
-1.60401e-05
4.7139e-05
-1.77435e-05
4.73164e-05
-1.94981e-05
4.5506e-05
-2.14865e-05
4.25882e-05
-2.35974e-05
3.901e-05
-2.573e-05
3.48106e-05
-2.77594e-05
3.00144e-05
-2.95571e-05
2.465e-05
1.87453e-05
-3.09823e-05
-3.26332e-06
3.00722e-05
-5.18294e-06
3.86912e-05
-5.96366e-06
4.43348e-05
-6.00233e-06
4.71721e-05
-6.20311e-06
4.75125e-05
-6.8806e-06
4.61792e-05
-8.03632e-06
4.37409e-05
-9.50186e-06
4.04727e-05
-1.11097e-05
3.64162e-05
-1.26935e-05
3.15963e-05
-1.40994e-05
2.6054e-05
1.98371e-05
-1.51925e-05
-7.90833e-08
3.01394e-05
1.62352e-07
3.84427e-05
1.7991e-06
4.26893e-05
3.68631e-06
4.52779e-05
4.97232e-06
4.62211e-05
5.40852e-06
4.5738e-05
5.09068e-06
4.40552e-05
4.25893e-06
4.13013e-05
3.15476e-06
3.75183e-05
1.99418e-06
3.27549e-05
9.5705e-07
2.70896e-05
2.06102e-05
1.825e-07
1.66018e-06
2.84682e-05
4.5644e-06
3.55282e-05
8.86287e-06
3.83869e-05
1.2736e-05
4.1397e-05
1.55527e-05
4.33977e-05
1.71475e-05
4.41376e-05
1.76887e-05
4.35096e-05
1.74915e-05
4.14949e-05
1.68771e-05
3.813e-05
1.61236e-05
3.35059e-05
1.54452e-05
2.77659e-05
2.10579e-05
1.49958e-05
2.36189e-06
2.60938e-05
7.69041e-06
3.01964e-05
1.49443e-05
3.11198e-05
2.09886e-05
3.53477e-05
2.54079e-05
3.89722e-05
2.81741e-05
4.13668e-05
2.95659e-05
4.21135e-05
2.99878e-05
4.107e-05
2.9842e-05
3.82729e-05
2.94792e-05
3.38669e-05
2.91557e-05
2.80875e-05
2.11678e-05
2.90442e-05
1.35077e-06
2.47378e-05
1.24029e-05
1.91338e-05
2.20717e-05
2.14543e-05
2.9638e-05
2.77751e-05
3.5118e-05
3.34874e-05
3.86754e-05
3.78049e-05
4.0708e-05
4.00772e-05
4.16378e-05
4.01371e-05
4.18914e-05
3.80163e-05
4.18791e-05
3.38767e-05
4.18936e-05
2.80704e-05
2.09272e-05
4.21317e-05
2.46397e-05
9.57388e-08
3.38134e-05
9.96479e-06
3.95866e-05
1.56731e-05
4.40453e-05
2.33157e-05
4.74134e-05
3.01187e-05
4.99572e-05
3.52598e-05
5.16886e-05
3.83455e-05
5.26495e-05
3.91746e-05
5.30592e-05
3.76058e-05
5.32801e-05
3.36543e-05
5.35769e-05
2.7772e-05
5.41486e-05
2.03531e-05
-0.00012109
4.63051e-06
-0.000123069
1.97675e-06
-0.000122469
-6.00541e-07
-0.000119296
-3.17382e-06
-0.000113481
-5.81455e-06
-0.00010482
-8.65993e-06
-9.3209e-05
-1.16108e-05
-7.84919e-05
-1.47165e-05
-6.05927e-05
-1.78986e-05
-3.96445e-05
-2.09473e-05
-1.71635e-05
-2.24787e-05
-1.7163e-05
-0.000101009
6.95848e-06
-0.000102076
3.04234e-06
-0.000101743
-9.34405e-07
-9.98343e-05
-5.08291e-06
-9.61119e-05
-9.5369e-06
-9.04712e-05
-1.42999e-05
-8.27208e-05
-1.93608e-05
-7.26916e-05
-2.4745e-05
-6.00931e-05
-3.04966e-05
-4.44654e-05
-3.65739e-05
-2.55679e-05
-4.13752e-05
-4.27303e-05
-8.23298e-05
8.79088e-06
-8.3205e-05
3.91615e-06
-8.29171e-05
-1.2225e-06
-8.12909e-05
-6.70976e-06
-7.82213e-05
-1.2606e-05
-7.35927e-05
-1.89283e-05
-6.72646e-05
-2.56883e-05
-5.90943e-05
-3.29153e-05
-4.89503e-05
-4.06396e-05
-3.66577e-05
-4.88659e-05
-2.08856e-05
-5.71455e-05
-6.36146e-05
-6.48969e-05
1.02024e-05
-6.5463e-05
4.48103e-06
-6.50529e-05
-1.63314e-06
-6.36025e-05
-8.16097e-06
-6.10333e-05
-1.51752e-05
-5.72872e-05
-2.26748e-05
-5.23161e-05
-3.06593e-05
-4.60686e-05
-3.9163e-05
-3.8435e-05
-4.8272e-05
-2.91742e-05
-5.81253e-05
-1.72859e-05
-6.90299e-05
-8.09006e-05
-4.81513e-05
1.13548e-05
-4.85979e-05
4.92704e-06
-4.82658e-05
-1.96735e-06
-4.71052e-05
-9.32105e-06
-4.50762e-05
-1.72063e-05
-4.21502e-05
-2.55991e-05
-3.83324e-05
-3.44793e-05
-3.36373e-05
-4.38549e-05
-2.80352e-05
-5.38753e-05
-2.12384e-05
-6.49152e-05
-1.26992e-05
-7.75719e-05
-9.35975e-05
-3.1901e-05
1.22731e-05
-3.22616e-05
5.28497e-06
-3.20247e-05
-2.20322e-06
-3.1127e-05
-1.02214e-05
-2.95567e-05
-1.87736e-05
-2.73322e-05
-2.78261e-05
-2.45087e-05
-3.72986e-05
-2.12134e-05
-4.71523e-05
-1.75509e-05
-5.75313e-05
-1.36256e-05
-6.8847e-05
-8.54839e-06
-8.26425e-05
-0.000102147
-1.59058e-05
1.29847e-05
-1.61699e-05
5.5491e-06
-1.59389e-05
-2.43507e-06
-1.51956e-05
-1.09629e-05
-1.39491e-05
-2.002e-05
-1.22451e-05
-2.95267e-05
-1.02243e-05
-3.93186e-05
-8.12758e-06
-4.92446e-05
-6.22882e-06
-5.94321e-05
-4.67861e-06
-7.03901e-05
-3.1133e-06
-8.42085e-05
-0.000105258
-2.64063e-07
1.34304e-05
-3.24331e-07
5.60886e-06
2.83876e-08
-2.78703e-06
7.89503e-07
-1.17228e-05
1.93412e-06
-2.11618e-05
3.37084e-06
-3.09606e-05
4.85584e-06
-4.07993e-05
5.96228e-06
-5.03478e-05
6.20928e-06
-5.9672e-05
5.12183e-06
-6.92996e-05
2.59942e-06
-8.16819e-05
-0.000102649
1.48667e-05
1.35581e-05
1.51182e-05
5.35688e-06
1.57594e-05
-3.42765e-06
1.67768e-05
-1.27385e-05
1.8134e-05
-2.2516e-05
1.96899e-05
-3.25122e-05
2.10499e-05
-4.21539e-05
2.15544e-05
-5.08448e-05
2.04714e-05
-5.85834e-05
1.6929e-05
-6.57509e-05
1.04439e-05
-7.51758e-05
-9.2203e-05
2.9286e-05
1.3315e-05
2.99492e-05
4.69328e-06
3.10637e-05
-4.54219e-06
3.26264e-05
-1.42993e-05
3.45962e-05
-2.44831e-05
3.6759e-05
-3.46703e-05
3.85002e-05
-4.38896e-05
3.88823e-05
-5.12215e-05
3.69557e-05
-5.66501e-05
3.14115e-05
-6.0194e-05
2.06112e-05
-6.43771e-05
-7.15755e-05
4.27898e-05
1.26545e-05
4.3982e-05
3.49879e-06
4.58049e-05
-6.36548e-06
4.82756e-05
-1.67696e-05
5.1338e-05
-2.75434e-05
5.46371e-05
-3.79662e-05
5.72286e-05
-4.64767e-05
5.80087e-05
-5.1996e-05
5.5971e-05
-5.46078e-05
4.92938e-05
-5.35177e-05
3.39576e-05
-4.90206e-05
-3.76152e-05
5.52832e-05
1.15175e-05
5.72014e-05
1.57876e-06
6.00893e-05
-9.25493e-06
6.39513e-05
-2.06322e-05
6.86236e-05
-3.2215e-05
7.34585e-05
-4.27999e-05
7.70498e-05
-5.0066e-05
7.86083e-05
-5.35535e-05
7.72692e-05
-5.32684e-05
7.08143e-05
-4.70585e-05
5.40727e-05
-3.22826e-05
1.64626e-05
7.7297e-06
-7.73797e-06
1.24917e-05
-4.75994e-06
1.22763e-05
2.02874e-07
6.70642e-06
5.57424e-06
-7.47806e-06
1.41754e-05
-3.06929e-05
2.32138e-05
-5.29151e-05
2.22168e-05
-7.15377e-05
1.8618e-05
-8.70662e-05
1.55254e-05
-9.96478e-05
1.25772e-05
-0.000109593
9.94393e-06
7.20582e-06
-0.000116802
4.4446e-07
-8.19302e-06
-6.39882e-06
2.08081e-06
-2.04999e-05
1.42999e-05
-3.88708e-05
2.3944e-05
-5.4594e-05
2.98968e-05
-6.34063e-05
3.2024e-05
-7.05003e-05
2.93088e-05
-7.7741e-05
2.58555e-05
-8.4531e-05
2.23135e-05
-9.05555e-05
1.85989e-05
-9.53404e-05
1.47277e-05
1.08368e-05
-9.89736e-05
-8.49856e-06
2.99292e-07
-2.09675e-05
1.45479e-05
-3.31121e-05
2.64424e-05
-4.35367e-05
3.43675e-05
-5.13445e-05
3.77028e-05
-5.6743e-05
3.74205e-05
-6.16736e-05
3.42373e-05
-6.6466e-05
3.06452e-05
-7.08625e-05
2.67082e-05
-7.47627e-05
2.24965e-05
-7.80921e-05
1.80559e-05
1.34954e-05
-8.07528e-05
-1.1047e-05
1.13392e-05
-2.11907e-05
2.46899e-05
-2.98359e-05
3.50855e-05
-3.65012e-05
4.10312e-05
-4.14191e-05
4.26186e-05
-4.5151e-05
4.11498e-05
-4.88332e-05
3.79168e-05
-5.24249e-05
3.42342e-05
-5.58131e-05
3.00943e-05
-5.88952e-05
2.55764e-05
-6.15727e-05
2.0732e-05
1.56189e-05
-6.3698e-05
-9.29649e-06
2.06312e-05
-1.67484e-05
3.21386e-05
-2.23244e-05
4.06589e-05
-2.64752e-05
4.51792e-05
-2.96197e-05
4.57598e-05
-3.23703e-05
4.38971e-05
-3.51983e-05
4.07416e-05
-3.79975e-05
3.70303e-05
-4.07017e-05
3.27958e-05
-4.32116e-05
2.80839e-05
-4.54105e-05
2.29288e-05
1.73729e-05
-4.71663e-05
-6.27319e-06
2.68964e-05
-1.09492e-05
3.68108e-05
-1.39586e-05
4.36643e-05
-1.60604e-05
4.72768e-05
-1.77732e-05
4.74681e-05
-1.95409e-05
4.56598e-05
-2.15426e-05
4.27392e-05
-2.36688e-05
3.91521e-05
-2.58153e-05
3.49392e-05
-2.78584e-05
3.01237e-05
-2.96675e-05
2.47356e-05
1.88021e-05
-3.10988e-05
-3.04536e-06
2.99316e-05
-5.14311e-06
3.89022e-05
-5.94968e-06
4.44654e-05
-5.99274e-06
4.73141e-05
-6.19842e-06
4.76668e-05
-6.88345e-06
4.63391e-05
-8.04992e-06
4.38995e-05
-9.52678e-06
4.06242e-05
-1.11462e-05
3.6554e-05
-1.27403e-05
3.17143e-05
-1.41535e-05
2.61463e-05
1.98973e-05
-1.52511e-05
-4.83563e-07
3.04069e-05
1.15875e-07
3.82956e-05
1.81861e-06
4.2757e-05
3.72132e-06
4.54038e-05
5.01017e-06
4.63715e-05
5.44302e-06
4.5899e-05
5.11847e-06
4.4218e-05
4.27838e-06
4.14584e-05
3.16577e-06
3.7662e-05
1.9984e-06
3.28781e-05
9.56919e-07
2.71848e-05
2.06725e-05
1.79705e-07
2.11835e-06
2.82789e-05
4.67059e-06
3.57368e-05
8.92429e-06
3.84964e-05
1.27993e-05
4.15217e-05
1.56205e-05
4.3543e-05
1.72157e-05
4.42965e-05
1.77535e-05
4.36734e-05
1.7551e-05
4.16545e-05
1.69314e-05
3.82762e-05
1.6174e-05
3.3631e-05
1.54934e-05
2.7862e-05
2.11202e-05
1.50431e-05
2.15829e-06
2.61138e-05
7.70398e-06
3.01871e-05
1.50055e-05
3.11893e-05
2.10696e-05
3.54528e-05
2.54995e-05
3.91067e-05
2.82698e-05
4.15206e-05
2.96612e-05
4.22755e-05
3.00806e-05
4.12295e-05
2.99329e-05
3.84191e-05
2.95692e-05
3.39908e-05
2.92459e-05
2.81825e-05
2.1228e-05
2.91355e-05
1.38922e-06
2.47277e-05
1.2445e-05
1.9131e-05
2.21397e-05
2.1493e-05
2.97304e-05
2.78583e-05
3.52247e-05
3.36082e-05
3.87897e-05
3.79506e-05
4.0825e-05
4.02348e-05
4.1755e-05
4.02945e-05
4.20096e-05
3.81598e-05
4.19998e-05
3.39966e-05
4.20174e-05
2.81617e-05
2.09835e-05
4.22589e-05
2.46624e-05
6.78655e-08
3.38522e-05
9.94287e-06
3.96514e-05
1.56952e-05
4.41318e-05
2.3378e-05
4.75197e-05
3.02203e-05
5.00773e-05
3.53914e-05
5.18157e-05
3.84952e-05
5.27796e-05
3.93279e-05
5.31934e-05
3.77439e-05
5.3421e-05
3.37675e-05
5.37239e-05
2.7857e-05
5.43005e-05
2.04044e-05
-0.000121439
4.63678e-06
-0.000123416
1.9745e-06
-0.000122805
-6.11072e-07
-0.000119613
-3.19316e-06
-0.00011377
-5.84229e-06
-0.000105075
-8.69428e-06
-9.34243e-05
-1.16501e-05
-7.86659e-05
-1.47582e-05
-6.07251e-05
-1.79403e-05
-3.97364e-05
-2.09882e-05
-1.72141e-05
-2.25209e-05
-1.72138e-05
-0.000101307
6.96982e-06
-0.000102373
3.03894e-06
-0.000102032
-9.53172e-07
-0.000100108
-5.11771e-06
-9.63637e-05
-9.5864e-06
-9.06958e-05
-1.43616e-05
-8.29138e-05
-1.9432e-05
-7.28498e-05
-2.4822e-05
-6.0214e-05
-3.05759e-05
-4.45482e-05
-3.66531e-05
-2.56075e-05
-4.14609e-05
-4.28207e-05
-8.25892e-05
8.80543e-06
-8.34619e-05
3.91014e-06
-8.31655e-05
-1.25002e-06
-8.15253e-05
-6.75873e-06
-7.84365e-05
-1.26751e-05
-7.37837e-05
-1.90145e-05
-6.74279e-05
-2.57877e-05
-5.92261e-05
-3.30239e-05
-4.90481e-05
-4.0753e-05
-3.67207e-05
-4.89799e-05
-2.09159e-05
-5.72637e-05
-6.37353e-05
-6.51141e-05
1.02205e-05
-6.56776e-05
4.4722e-06
-6.52598e-05
-1.66862e-06
-6.37968e-05
-8.22266e-06
-6.12099e-05
-1.52625e-05
-5.74413e-05
-2.27834e-05
-5.24444e-05
-3.0785e-05
-4.61686e-05
-3.92989e-05
-3.85065e-05
-4.84142e-05
-2.92161e-05
-5.82677e-05
-1.73074e-05
-6.91693e-05
-8.1043e-05
-4.83233e-05
1.13759e-05
-4.87686e-05
4.91594e-06
-4.84282e-05
-2.01019e-06
-4.72562e-05
-9.39601e-06
-4.52093e-05
-1.73097e-05
-4.22641e-05
-2.57295e-05
-3.84209e-05
-3.46273e-05
-3.37032e-05
-4.40165e-05
-2.80753e-05
-5.40392e-05
-2.12613e-05
-6.50792e-05
-1.27066e-05
-7.77253e-05
-9.37495e-05
-3.2019e-05
1.22943e-05
-3.23772e-05
5.27295e-06
-3.2136e-05
-2.253e-06
-3.1226e-05
-1.03059e-05
-2.96435e-05
-1.88932e-05
-2.73981e-05
-2.79729e-05
-2.45575e-05
-3.74684e-05
-2.12393e-05
-4.73312e-05
-1.75647e-05
-5.77139e-05
-1.36255e-05
-6.90182e-05
-8.54626e-06
-8.28032e-05
-0.000102296
-1.59665e-05
1.30085e-05
-1.62291e-05
5.534e-06
-1.59921e-05
-2.48959e-06
-1.52413e-05
-1.10572e-05
-1.39814e-05
-2.01506e-05
-1.22637e-05
-2.96901e-05
-1.02249e-05
-3.95032e-05
-8.11609e-06
-4.94399e-05
-6.2039e-06
-5.96219e-05
-4.65187e-06
-7.05654e-05
-3.09171e-06
-8.43623e-05
-0.000105385
-2.68209e-07
1.34547e-05
-3.25776e-07
5.59079e-06
3.16161e-08
-2.84743e-06
8.00411e-07
-1.18245e-05
1.95466e-06
-2.13032e-05
3.40435e-06
-3.11359e-05
4.90098e-06
-4.0997e-05
6.01709e-06
-5.05511e-05
6.26735e-06
-5.98652e-05
5.17348e-06
-6.94683e-05
2.63707e-06
-8.18175e-05
-0.000102741
1.49157e-05
1.358e-05
1.51707e-05
5.33432e-06
1.58171e-05
-3.49392e-06
1.68413e-05
-1.28478e-05
1.82075e-05
-2.26666e-05
1.97741e-05
-3.26988e-05
2.1143e-05
-4.23611e-05
2.16513e-05
-5.10525e-05
2.05637e-05
-5.87738e-05
1.70095e-05
-6.59005e-05
1.04923e-05
-7.52889e-05
-9.22456e-05
2.93811e-05
1.33324e-05
3.00488e-05
4.66518e-06
3.11697e-05
-4.61538e-06
3.27394e-05
-1.44168e-05
3.47184e-05
-2.46429e-05
3.68911e-05
-3.48678e-05
3.86386e-05
-4.41032e-05
3.90184e-05
-5.14281e-05
3.70839e-05
-5.68281e-05
3.15126e-05
-6.03276e-05
2.06795e-05
-6.44493e-05
-7.15549e-05
4.29215e-05
1.26666e-05
4.412e-05
3.46381e-06
4.59502e-05
-6.44718e-06
4.84295e-05
-1.68961e-05
5.15019e-05
-2.7714e-05
5.48114e-05
-3.81743e-05
5.74052e-05
-4.66929e-05
5.81792e-05
-5.2196e-05
5.61227e-05
-5.47721e-05
4.94192e-05
-5.36144e-05
3.40313e-05
-4.90531e-05
-3.75254e-05
5.54415e-05
1.15226e-05
5.73679e-05
1.5349e-06
6.0265e-05
-9.34667e-06
6.41374e-05
-2.07696e-05
6.88216e-05
-3.23981e-05
7.36653e-05
-4.30167e-05
7.72524e-05
-5.02785e-05
7.87983e-05
-5.37412e-05
7.74383e-05
-5.34065e-05
7.09452e-05
-4.71271e-05
5.41571e-05
-3.22657e-05
1.66351e-05
7.72428e-06
-7.73011e-06
1.25045e-05
-4.7787e-06
1.23248e-05
1.70524e-07
6.80315e-06
5.52615e-06
-7.25431e-06
1.40517e-05
-3.04145e-05
2.31602e-05
-5.26688e-05
2.22511e-05
-7.12984e-05
1.86261e-05
-8.68426e-05
1.55425e-05
-9.94308e-05
1.25846e-05
-0.000109386
9.95421e-06
7.21498e-06
-0.000116604
4.74621e-07
-8.21403e-06
-6.31009e-06
2.00375e-06
-2.03421e-05
1.41993e-05
-3.86886e-05
2.38718e-05
-5.44684e-05
2.98305e-05
-6.33161e-05
3.20063e-05
-7.0381e-05
2.93149e-05
-7.76097e-05
2.58523e-05
-8.43854e-05
2.23171e-05
-9.04039e-05
1.86007e-05
-9.51833e-05
1.47328e-05
1.08441e-05
-9.88144e-05
-8.43715e-06
2.15427e-07
-2.08799e-05
1.44444e-05
-3.30297e-05
2.63469e-05
-4.34574e-05
3.42985e-05
-5.12751e-05
3.76468e-05
-5.66634e-05
3.73931e-05
-6.15741e-05
3.42241e-05
-6.63533e-05
3.06295e-05
-7.07327e-05
2.66952e-05
-7.46189e-05
2.24849e-05
-7.79364e-05
1.80492e-05
1.34946e-05
-8.05887e-05
-1.10207e-05
1.12311e-05
-2.11551e-05
2.45762e-05
-2.98004e-05
3.49906e-05
-3.6465e-05
4.09617e-05
-4.13822e-05
4.25625e-05
-4.5099e-05
4.11085e-05
-4.87555e-05
3.78788e-05
-5.23235e-05
3.41959e-05
-5.56894e-05
3.00597e-05
-5.8753e-05
2.55469e-05
-6.14157e-05
2.07109e-05
1.56085e-05
-6.35311e-05
-9.27814e-06
2.05022e-05
-1.67322e-05
3.2029e-05
-2.23125e-05
4.05688e-05
-2.64606e-05
4.51081e-05
-2.95957e-05
4.56963e-05
-3.23267e-05
4.38373e-05
-3.513e-05
4.06812e-05
-3.79056e-05
3.69696e-05
-4.05866e-05
3.27398e-05
-4.30769e-05
2.80354e-05
-4.52596e-05
2.28923e-05
1.73511e-05
-4.70037e-05
-6.24477e-06
2.6743e-05
-1.09594e-05
3.67408e-05
-1.39707e-05
4.35764e-05
-1.60643e-05
4.71997e-05
-1.77643e-05
4.73927e-05
-1.95108e-05
4.55824e-05
-2.14899e-05
4.26573e-05
-2.35919e-05
3.90704e-05
-2.57164e-05
3.48621e-05
-2.77393e-05
3.00568e-05
-2.95321e-05
2.46836e-05
1.87703e-05
-3.09534e-05
-3.26653e-06
3.00026e-05
-5.19774e-06
3.86657e-05
-5.98099e-06
4.43562e-05
-6.01526e-06
4.72284e-05
-6.20725e-06
4.75802e-05
-6.87354e-06
4.62445e-05
-8.01788e-06
4.37988e-05
-9.47274e-06
4.05226e-05
-1.1071e-05
3.64584e-05
-1.2647e-05
3.1631e-05
-1.40466e-05
2.60814e-05
1.98575e-05
-1.51349e-05
-9.72085e-08
3.00875e-05
1.43295e-07
3.8418e-05
1.78233e-06
4.27084e-05
3.67926e-06
4.53246e-05
4.97839e-06
4.62758e-05
5.42845e-06
4.57897e-05
5.1239e-06
4.41e-05
4.30433e-06
4.13392e-05
3.21079e-06
3.75501e-05
2.05898e-06
3.2781e-05
1.02872e-06
2.71102e-05
2.06256e-05
2.59184e-07
1.64766e-06
2.8429e-05
4.54104e-06
3.55143e-05
8.84221e-06
3.84033e-05
1.27283e-05
4.14309e-05
1.55612e-05
4.34365e-05
1.71724e-05
4.41732e-05
1.77287e-05
4.35393e-05
1.75452e-05
4.15194e-05
1.69423e-05
3.81503e-05
1.61981e-05
3.35228e-05
1.55268e-05
2.77797e-05
2.10686e-05
1.50821e-05
2.33455e-06
2.60814e-05
7.65404e-06
3.01914e-05
1.49139e-05
3.11303e-05
2.09731e-05
3.53667e-05
2.54111e-05
3.89925e-05
2.81959e-05
4.1384e-05
2.96049e-05
4.21263e-05
3.0042e-05
4.10795e-05
2.99085e-05
3.82811e-05
2.9555e-05
3.38746e-05
2.92383e-05
2.80945e-05
2.11742e-05
2.91312e-05
1.3267e-06
2.47496e-05
1.23591e-05
1.91484e-05
2.20313e-05
2.14615e-05
2.96121e-05
2.77796e-05
3.51113e-05
3.34887e-05
3.86885e-05
3.78026e-05
4.07395e-05
4.00717e-05
4.16858e-05
4.01305e-05
4.19523e-05
3.80119e-05
4.19491e-05
3.38753e-05
4.19697e-05
2.80714e-05
2.09305e-05
4.22111e-05
2.45983e-05
1.48814e-07
3.37628e-05
9.98876e-06
3.95438e-05
1.56723e-05
4.40172e-05
2.33058e-05
4.74018e-05
3.01038e-05
4.99628e-05
3.52405e-05
5.17114e-05
3.8323e-05
5.26883e-05
3.91522e-05
5.31104e-05
3.75892e-05
5.33396e-05
3.36447e-05
5.36414e-05
2.77684e-05
5.42147e-05
2.03549e-05
-0.000121253
4.64858e-06
-0.000123243
1.98787e-06
-0.000122647
-5.95696e-07
-0.000119473
-3.17526e-06
-0.000113652
-5.82098e-06
-0.000104979
-8.67235e-06
-9.33513e-05
-1.16269e-05
-7.86138e-05
-1.47367e-05
-6.06917e-05
-1.79215e-05
-3.9716e-05
-2.09747e-05
-1.72044e-05
-2.25092e-05
-1.72039e-05
-0.000101148
6.9813e-06
-0.000102216
3.05494e-06
-0.000101881
-9.3136e-07
-9.99678e-05
-5.08901e-06
-9.62367e-05
-9.55195e-06
-9.05851e-05
-1.43231e-05
-8.28212e-05
-1.93904e-05
-7.27767e-05
-2.47805e-05
-6.01601e-05
-3.05375e-05
-4.4513e-05
-3.66206e-05
-2.55924e-05
-4.14289e-05
-4.27956e-05
-8.24208e-05
8.81292e-06
-8.32944e-05
3.92714e-06
-8.30036e-05
-1.2224e-06
-8.13728e-05
-6.72031e-06
-7.82974e-05
-1.26269e-05
-7.36619e-05
-1.89584e-05
-6.73255e-05
-2.57261e-05
-5.91456e-05
-3.29603e-05
-4.89898e-05
-4.06923e-05
-3.66847e-05
-4.89251e-05
-2.08992e-05
-5.72125e-05
-6.36933e-05
-6.49421e-05
1.02231e-05
-6.55063e-05
4.49009e-06
-6.50943e-05
-1.63494e-06
-6.36423e-05
-8.17312e-06
-6.10715e-05
-1.51975e-05
-5.73235e-05
-2.27068e-05
-5.23493e-05
-3.07002e-05
-4.60972e-05
-3.92125e-05
-3.84582e-05
-4.83301e-05
-2.91902e-05
-5.81916e-05
-1.72956e-05
-6.91032e-05
-8.0989e-05
-4.81558e-05
1.13735e-05
-4.86013e-05
4.93501e-06
-4.82687e-05
-1.9697e-06
-4.71087e-05
-9.33249e-06
-4.50816e-05
-1.72269e-05
-4.21576e-05
-2.5629e-05
-3.83411e-05
-3.4519e-05
-3.3646e-05
-4.39042e-05
-2.80431e-05
-5.39342e-05
-2.12441e-05
-6.49837e-05
-1.27018e-05
-7.76482e-05
-9.36885e-05
-3.18689e-05
1.22886e-05
-3.22287e-05
5.29219e-06
-3.1993e-05
-2.20439e-06
-3.10983e-05
-1.02298e-05
-2.95331e-05
-1.87891e-05
-2.73149e-05
-2.78497e-05
-2.44975e-05
-3.73321e-05
-2.1207e-05
-4.71967e-05
-1.75479e-05
-5.75867e-05
-1.36255e-05
-6.89125e-05
-8.54985e-06
-8.27171e-05
-0.000102239
-1.58454e-05
1.29974e-05
-1.61084e-05
5.55527e-06
-1.58793e-05
-2.43426e-06
-1.5141e-05
-1.09661e-05
-1.39025e-05
-2.00273e-05
-1.22087e-05
-2.95402e-05
-1.01982e-05
-3.93417e-05
-8.11037e-06
-4.928e-05
-6.21808e-06
-5.94809e-05
-4.67195e-06
-7.04516e-05
-3.10908e-06
-8.42804e-05
-0.000105346
-1.84475e-07
1.34403e-05
-2.44049e-07
5.61444e-06
1.06043e-07
-2.78348e-06
8.60711e-07
-1.17195e-05
1.99489e-06
-2.11585e-05
3.41845e-06
-3.09607e-05
4.89002e-06
-4.08088e-05
5.98456e-06
-5.03712e-05
6.22244e-06
-5.97116e-05
5.1294e-06
-6.93552e-05
2.60194e-06
-8.17489e-05
-0.000102734
1.49556e-05
1.35655e-05
1.52068e-05
5.36295e-06
1.58441e-05
-3.42012e-06
1.68536e-05
-1.27271e-05
1.81985e-05
-2.25003e-05
1.97396e-05
-3.24974e-05
2.10853e-05
-4.2149e-05
2.15771e-05
-5.08554e-05
2.04842e-05
-5.8613e-05
1.69357e-05
-6.58007e-05
1.04471e-05
-7.52382e-05
-9.2285e-05
2.93744e-05
1.33211e-05
3.00355e-05
4.7016e-06
3.11444e-05
-4.52894e-06
3.26975e-05
-1.42782e-05
3.46537e-05
-2.44536e-05
3.68017e-05
-3.46405e-05
3.85306e-05
-4.38722e-05
3.89019e-05
-5.12212e-05
3.69662e-05
-5.66706e-05
3.14177e-05
-6.0239e-05
2.0616e-05
-6.44385e-05
-7.16524e-05
4.28688e-05
1.2661e-05
4.40569e-05
3.51139e-06
4.58719e-05
-6.34411e-06
4.83309e-05
-1.67367e-05
5.13789e-05
-2.74992e-05
5.46652e-05
-3.79235e-05
5.72499e-05
-4.64522e-05
5.80234e-05
-5.1989e-05
5.59802e-05
-5.46226e-05
4.93017e-05
-5.35618e-05
3.3964e-05
-4.90802e-05
-3.76854e-05
5.53469e-05
1.15265e-05
5.72581e-05
1.59857e-06
6.0135e-05
-9.22242e-06
6.39831e-05
-2.05853e-05
6.86413e-05
-3.21565e-05
7.34679e-05
-4.27487e-05
7.70584e-05
-5.00404e-05
7.86168e-05
-5.35464e-05
7.7283e-05
-5.32886e-05
7.08333e-05
-4.7108e-05
5.40895e-05
-3.234e-05
1.64078e-05
9.14093e-05
1.01071e-05
-0.000101463
8.44567e-05
1.68816e-05
7.59752e-05
2.41137e-05
6.97442e-05
2.94957e-05
6.60329e-05
3.37839e-05
6.43143e-05
3.69466e-05
6.38184e-05
3.88303e-05
6.37629e-05
3.92475e-05
6.37772e-05
3.76391e-05
6.39766e-05
3.35267e-05
6.4435e-05
2.73971e-05
1.95621e-05
6.53111e-05
0.000112301
1.19366e-05
-0.000114131
0.000107168
2.20183e-05
0.000100214
3.10729e-05
9.25505e-05
3.71633e-05
8.57342e-05
4.06051e-05
8.05585e-05
4.21265e-05
7.72347e-05
4.21582e-05
7.5312e-05
4.11723e-05
7.42966e-05
3.86565e-05
7.41158e-05
3.37077e-05
7.44824e-05
2.70305e-05
1.83705e-05
7.56722e-05
0.000119938
1.34258e-05
-0.000121428
0.000116705
2.5255e-05
0.000112164
3.56175e-05
0.000106607
4.27264e-05
0.000100651
4.65676e-05
9.50225e-05
4.77611e-05
9.03938e-05
4.67922e-05
8.70685e-05
4.45025e-05
8.51005e-05
4.06281e-05
8.42666e-05
3.45434e-05
8.4491e-05
2.68051e-05
1.64062e-05
8.64516e-05
0.000123002
-0.000124964
1.53889e-05
0.000120233
2.80283e-05
0.000116667
3.91884e-05
0.000112417
4.69823e-05
0.000107837
5.1154e-05
0.000103527
5.2077e-05
9.98219e-05
5.05023e-05
9.7038e-05
4.72904e-05
9.55252e-05
4.21437e-05
9.52944e-05
3.47753e-05
9.66867e-05
2.54117e-05
0.000100942
1.21506e-05