/*--------------------------------*- C++ -*----------------------------------*\
| =========                 |                                                 |
| \\      /  F ield         | OpenFOAM: The Open Source CFD Toolbox           |
|  \\    /   O peration     | Version:  4.0                                   |
|   \\  /    A nd           | Web:      www.OpenFOAM.org                      |
|    \\/     M anipulation  |                                                 |
\*---------------------------------------------------------------------------*/
FoamFile
{
    version     2.0;
    format      ascii;
    class       volVectorField;
    location    "100";
    object      U;
}
// * * * * * * * * * * * * * * * * * * * * * * * * * * * * * * * * * * * * * //

dimensions      [0 1 -1 0 0 0 0];

internalField   nonuniform List<vector> 
3072
(
(-0.314375 2.29724 0)
(-0.238631 1.87176 0)
(-0.127764 1.68502 2.54051e-19)
(0.0983347 1.84875 1.3542e-18)
(1.06816 1.89698 -1.87447e-18)
(2.49243 2.04173 4.65987e-19)
(3.20829 2.96631 1.55629e-19)
(3.5945 3.42548 2.10962e-18)
(4.09742 3.87613 -3.80143e-18)
(4.53438 4.10521 2.22362e-18)
(5.02238 4.21648 -4.96284e-19)
(5.41924 4.20845 1.21196e-19)
(-0.662713 2.80855 -2.69554e-19)
(-0.0285173 2.53548 -3.73856e-19)
(1.00732 2.78287 2.78107e-19)
(2.02469 3.36424 0)
(2.84462 3.72794 4.06151e-19)
(3.37983 3.91794 -7.22656e-19)
(3.57444 4.05356 0)
(3.7086 4.19631 0)
(3.91689 4.32781 0)
(4.14237 4.40757 7.94307e-19)
(4.36893 4.46017 -1.50497e-19)
(4.59079 4.44886 7.58539e-19)
(0.0116836 3.14951 1.80971e-19)
(0.958364 3.20863 0)
(1.92053 3.55283 0)
(2.73912 3.79994 -1.61391e-18)
(3.33013 3.8788 7.86763e-19)
(3.68007 3.85293 -1.51404e-18)
(3.84015 3.88482 1.57957e-18)
(4.00879 3.88011 0)
(4.17384 3.8813 0)
(4.33168 3.86607 -5.16759e-19)
(4.48466 3.83784 -2.63282e-19)
(4.63114 3.79041 1.31841e-18)
(0.399104 3.35116 -1.40524e-18)
(1.42334 3.50879 -1.39702e-18)
(2.30322 3.72165 8.76505e-19)
(2.96708 3.78846 -1.02982e-18)
(3.38717 3.75882 2.99943e-18)
(3.64245 3.70823 -2.63765e-18)
(3.78402 3.64869 -1.66509e-18)
(3.91171 3.61793 -3.85137e-18)
(4.02716 3.59013 3.3453e-20)
(4.13556 3.56341 1.83717e-18)
(4.23867 3.53527 1.92566e-18)
(4.33583 3.50107 -1.50701e-18)
(0.921791 3.44474 0)
(1.78351 3.64904 5.81287e-19)
(2.52051 3.70899 -1.25583e-18)
(3.04077 3.67071 2.12377e-18)
(3.35706 3.58059 2.75411e-19)
(3.54359 3.48948 1.5954e-18)
(3.6655 3.41182 1.37985e-18)
(3.77428 3.35098 1.17849e-18)
(3.86917 3.29876 -2.33562e-18)
(3.95411 3.25551 2.11572e-18)
(4.02984 3.21862 -2.71656e-18)
(4.09586 3.18519 3.76288e-18)
(1.22174 3.53386 -1.17644e-18)
(1.96198 3.74476 7.25119e-19)
(2.55525 3.67394 2.48587e-18)
(2.99514 3.55847 0)
(3.25398 3.4155 -4.26454e-18)
(3.41263 3.28702 4.20048e-18)
(3.52413 3.18123 0)
(3.61724 3.09541 -2.94287e-18)
(3.69436 3.02595 2.63008e-18)
(3.75809 2.9722 0)
(3.80903 2.93159 1.94621e-19)
(3.84747 2.90223 2.28023e-18)
(1.35467 3.65168 0)
(1.99901 3.83284 -1.90521e-18)
(2.50479 3.6679 1.53638e-18)
(2.87252 3.47911 0)
(3.10096 3.27878 -2.58088e-18)
(3.24969 3.10744 4.27209e-19)
(3.35666 2.96867 3.70547e-18)
(3.44032 2.85839 3.22492e-18)
(3.50418 2.77259 -2.90764e-18)
(3.55039 2.7089 2.7868e-18)
(3.58004 2.66433 -2.43236e-18)
(3.59384 2.63719 -6.67403e-18)
(1.33933 3.79041 0)
(1.93506 3.95236 1.90157e-18)
(2.37173 3.68588 -2.98195e-18)
(2.6886 3.42781 3.42459e-18)
(2.90813 3.17038 0)
(3.06116 2.95274 -4.42486e-18)
(3.17137 2.77846 4.03538e-18)
(3.25183 2.64288 -3.9052e-20)
(3.30686 2.54043 -6.38142e-18)
(3.33895 2.46688 -2.87258e-18)
(3.35023 2.41849 -1.21449e-19)
(3.34305 2.39281 5.10381e-18)
(1.24344 3.97272 0)
(1.78729 4.10534 -2.69271e-18)
(2.15526 3.75152 -4.5913e-18)
(2.45869 3.41485 -3.41096e-18)
(2.68681 3.0972 6.31423e-18)
(2.85494 2.82974 0)
(2.97619 2.61679 0)
(3.05965 2.45383 0)
(3.11 2.33372 0)
(3.13107 2.25007 3.09192e-18)
(3.12666 2.19758 -2.98197e-18)
(3.1006 2.1726 2.81997e-18)
(1.06428 4.19562 0)
(1.60545 4.33601 3.02011e-18)
(1.89445 3.87464 -5.45502e-19)
(2.19419 3.44468 4.26811e-18)
(2.44302 3.06272 3.81443e-18)
(2.63624 2.74238 -5.80576e-18)
(2.77698 2.489 0)
(2.8698 2.29721 -1.79749e-19)
(2.92027 2.15844 -1.20525e-17)
(2.9338 2.0642 0)
(2.91635 2.00689 6.97006e-18)
(2.87385 1.9815 -3.11324e-18)
(1.10062 4.50213 0)
(1.29282 4.49408 3.65402e-18)
(1.53702 3.96135 9.86136e-18)
(1.87956 3.45645 -8.26151e-18)
(2.17114 3.03292 -1.05152e-17)
(2.40505 2.6766 1.5439e-17)
(2.57583 2.39152 -1.82206e-19)
(2.68644 2.17417 -5.32501e-18)
(2.74298 2.01799 4.06128e-18)
(2.75299 1.91359 -8.31532e-18)
(2.72533 1.85125 -1.10467e-17)
(2.66849 1.82471 1.10141e-17)
(0.394131 3.85816 -1.75719e-18)
(0.803378 3.91666 -1.20465e-17)
(1.11661 3.52249 2.37626e-18)
(1.507 3.157 0)
(1.87074 2.85264 0)
(2.16212 2.55412 3.03706e-19)
(2.37311 2.28764 1.80228e-17)
(2.50951 2.06953 1.06771e-17)
(2.5797 1.90683 0)
(2.59134 1.79699 8.89329e-18)
(2.55689 1.73132 0)
(2.48793 1.70416 5.16681e-19)
(5.7731 4.1044 4.11778e-18)
(6.02883 3.92244 -2.0481e-18)
(6.19412 3.67696 1.10779e-18)
(6.25158 3.39044 -1.51078e-19)
(6.21047 3.06097 7.00219e-20)
(6.04559 2.71894 0)
(5.75387 2.36927 0)
(5.33047 2.03733 9.20946e-19)
(4.7715 1.72814 -1.09052e-18)
(4.02654 1.41855 0)
(3.23278 1.03646 0)
(2.82299 0.233614 -7.35085e-19)
(4.80613 4.38692 -2.69092e-19)
(4.99827 4.27367 0)
(5.16368 4.11014 -8.87855e-19)
(5.28435 3.9026 -3.65089e-19)
(5.33157 3.677 -7.32738e-20)
(5.29808 3.44431 1.59323e-18)
(5.17526 3.21721 -2.81363e-18)
(4.96151 3.01516 5.30651e-19)
(4.65779 2.8585 0)
(4.15502 2.74157 0)
(3.60653 2.63603 0)
(3.4522 2.35284 7.50361e-19)
(4.76656 3.72289 5.31235e-19)
(4.87825 3.63848 -1.46607e-18)
(4.95546 3.54248 3.50202e-19)
(4.9885 3.44302 1.1908e-18)
(4.96996 3.34569 -1.24093e-18)
(4.89605 3.26003 0)
(4.76339 3.19524 0)
(4.57347 3.16391 -5.17589e-20)
(4.33279 3.17925 8.65481e-19)
(3.96992 3.24355 0)
(3.5533 3.30996 0)
(3.51665 3.27373 -4.2957e-19)
(4.42136 3.45891 2.42221e-19)
(4.48734 3.41019 1.88698e-18)
(4.52677 3.35858 1.41769e-18)
(4.534 3.3112 -1.43584e-18)
(4.50572 3.27633 0)
(4.44069 3.26113 9.66692e-19)
(4.33947 3.27341 0)
(4.20488 3.32293 1.91625e-18)
(4.04533 3.42137 -7.00884e-19)
(3.84266 3.57761 0)
(3.50929 3.79772 -3.25027e-19)
(3.68426 4.07739 3.75747e-19)
(4.14831 3.15452 -1.40505e-18)
(4.18055 3.12971 0)
(4.19085 3.11344 0)
(4.17878 3.10717 0)
(4.14302 3.12177 0)
(4.08513 3.16062 -1.80125e-18)
(4.00835 3.22859 -6.23039e-20)
(3.91725 3.33251 -9.8649e-19)
(3.81923 3.48373 0)
(3.72243 3.69753 -7.40794e-19)
(3.48517 3.99313 2.93949e-19)
(3.79948 4.42667 -1.06458e-19)
(3.8693 2.88538 -1.48186e-19)
(3.87555 2.87926 -3.58192e-18)
(3.86643 2.88776 1.82079e-18)
(3.84203 2.91557 3.3715e-21)
(3.80351 2.96597 1.36426e-19)
(3.75483 3.04228 2.83163e-18)
(3.70156 3.14658 -4.54226e-20)
(3.65201 3.2826 -3.37887e-18)
(3.61558 3.46044 -1.40385e-18)
(3.60224 3.69979 6.49424e-19)
(3.49839 4.04468 -9.28009e-19)
(3.93203 4.63144 -2.25885e-19)
(3.59242 2.6277 6.3628e-18)
(3.57783 2.63649 2.05835e-18)
(3.5518 2.66454 0)
(3.51639 2.71461 0)
(3.47479 2.78965 1.39432e-19)
(3.43249 2.89059 -2.09678e-18)
(3.39784 3.01597 3.44845e-18)
(3.3837 3.16541 -6.55891e-20)
(3.40214 3.34545 1.23619e-18)
(3.47176 3.57499 0)
(3.51176 3.9192 -1.78815e-19)
(3.98783 4.56802 -8.86141e-20)
(3.32054 2.38901 -2.46049e-18)
(3.28602 2.40701 -2.22081e-18)
(3.2427 2.44743 2.41954e-18)
(3.19418 2.51227 -2.28745e-18)
(3.1451 2.60324 -1.24851e-20)
(3.1024 2.71886 4.80293e-18)
(3.07817 2.85329 -2.28948e-18)
(3.09188 3.00101 1.36076e-18)
(3.16051 3.16481 0)
(3.31317 3.36228 8.81483e-19)
(3.47971 3.66718 3.84267e-19)
(4.03894 4.27914 -6.24202e-19)
(3.0591 2.17259 2.63544e-18)
(3.00393 2.19625 -2.65366e-18)
(2.94095 2.24414 -2.46375e-18)
(2.87456 2.31728 -5.24822e-18)
(2.80994 2.41661 5.19376e-18)
(2.75541 2.53796 -5.13496e-18)
(2.72793 2.66968 0)
(2.75687 2.79994 -1.33939e-18)
(2.86366 2.92669 0)
(3.09122 3.06193 0)
(3.38876 3.28541 0)
(3.98912 3.82425 3.08152e-19)
(2.81297 1.98409 3.0453e-18)
(2.73635 2.01176 -6.1375e-18)
(2.65036 2.06376 6.02433e-18)
(2.559 2.1406 5.8756e-18)
(2.46717 2.24268 2.91424e-18)
(2.38504 2.36265 0)
(2.33694 2.48087 0)
(2.36618 2.57961 3.29162e-18)
(2.4946 2.65065 0)
(2.78581 2.69544 -1.03867e-18)
(3.19007 2.77762 5.96901e-19)
(3.8588 3.04548 -9.74982e-19)
(2.58811 1.82932 -7.09478e-18)
(2.48863 1.85976 6.40742e-18)
(2.37376 1.91398 -6.29533e-18)
(2.24665 1.99145 -1.62564e-17)
(2.11174 2.09234 -1.89172e-19)
(1.98285 2.20532 1.27576e-19)
(1.89729 2.30098 -3.54035e-18)
(1.91445 2.35815 -3.31099e-18)
(2.04286 2.35803 0)
(2.3706 2.28741 3.14913e-18)
(2.84919 2.14868 8.88052e-19)
(3.57464 1.87952 -1.41686e-18)
(2.38864 1.71098 -5.1542e-19)
(2.26156 1.74344 0)
(2.10676 1.79804 0)
(1.92691 1.87339 3.44612e-18)
(1.72792 1.97018 1.06778e-17)
(1.53439 2.07252 -3.48704e-18)
(1.40589 2.14088 -1.68408e-19)
(1.40767 2.14916 -1.70135e-18)
(1.51699 2.08186 -1.63527e-18)
(1.82565 1.88586 -1.93644e-18)
(2.34606 1.4742 0)
(2.91985 0.172456 1.87207e-18)
(2.29041 0.303287 6.1986e-22)
(1.86956 0.230391 0)
(1.68449 0.121004 -2.54879e-19)
(1.85057 -0.107022 0)
(1.89502 -1.08013 -8.05542e-19)
(2.05163 -2.50034 4.56853e-19)
(2.9708 -3.20318 0)
(3.42814 -3.59135 1.78879e-18)
(3.87562 -4.09105 -3.33127e-18)
(4.10315 -4.52787 2.57577e-18)
(4.21269 -5.01371 -1.70324e-19)
(4.20386 -5.40998 -1.2229e-19)
(2.80745 0.654138 -1.84758e-19)
(2.53503 0.0226931 -8.31162e-20)
(2.78435 -1.01113 1.83421e-19)
(3.36571 -2.02646 0)
(3.72608 -2.84353 -4.11679e-19)
(3.91621 -3.37291 3.6401e-19)
(4.05121 -3.56526 0)
(4.19394 -3.70041 7.41225e-19)
(4.32444 -3.90801 -1.65759e-18)
(4.40353 -4.13396 9.0197e-19)
(4.455 -4.36018 -2.67999e-19)
(4.44304 -4.58213 -1.59292e-18)
(3.14621 -0.0171476 -1.8184e-19)
(3.20695 -0.964271 0)
(3.55126 -1.92465 -8.30654e-19)
(3.79804 -2.73986 0)
(3.87541 -3.327 0)
(3.85046 -3.67313 -7.01746e-19)
(3.8825 -3.83153 3.1992e-18)
(3.87789 -3.99987 -2.30823e-18)
(3.8789 -4.16447 6.15018e-19)
(3.86351 -4.32246 0)
(3.83492 -4.47551 1.18598e-18)
(3.78715 -4.62232 -6.78823e-19)
(3.34952 -0.404525 8.03741e-19)
(3.50771 -1.42816 7.23337e-19)
(3.72001 -2.30568 6.92353e-19)
(3.78646 -2.96579 1.63876e-18)
(3.75653 -3.38266 -1.46013e-18)
(3.70642 -3.63542 -1.00305e-18)
(3.64758 -3.77594 0)
(3.61726 -3.90352 0)
(3.58951 -4.01903 1.20937e-18)
(3.56262 -4.12781 0)
(3.53409 -4.23134 3.24753e-19)
(3.49935 -4.329 5.57328e-19)
(3.44382 -0.925939 6.73779e-19)
(3.64838 -1.78729 -4.73844e-19)
(3.70785 -2.52194 -1.25168e-18)
(3.6696 -3.03872 0)
(3.57985 -3.35231 0)
(3.48945 -3.53726 2.02433e-18)
(3.41249 -3.65871 0)
(3.35208 -3.76745 -2.67306e-18)
(3.30007 -3.86252 -9.94891e-19)
(3.25673 -3.94786 2.10765e-18)
(3.2195 -4.02406 -2.70893e-18)
(3.18548 -4.09062 1.7897e-18)
(3.53311 -1.22519 -6.08477e-19)
(3.74436 -1.96521 -6.78446e-19)
(3.67337 -2.55611 1.11539e-18)
(3.55829 -2.99306 1.65037e-19)
(3.41607 -3.2498 2.16883e-18)
(3.28851 -3.40743 -4.01496e-18)
(3.1835 -3.51866 3.397e-18)
(3.09827 -3.61182 2.38752e-19)
(3.02913 -3.6892 0)
(2.97541 -3.75337 0)
(2.93452 -3.80487 4.47024e-18)
(2.90458 -3.84396 -4.11036e-20)
(3.65128 -1.35761 -7.83301e-20)
(3.83242 -2.00189 -1.07323e-18)
(3.66748 -2.50563 0)
(3.47944 -2.87086 -2.51074e-18)
(3.28019 -3.09766 2.73297e-18)
(3.10998 -3.24572 6.64466e-18)
(2.97219 -3.35256 3.94173e-18)
(2.86268 -3.43634 4.35696e-19)
(2.77738 -3.50053 -5.91033e-18)
(2.71386 -3.54725 2.63748e-18)
(2.66913 -3.57759 2.71016e-18)
(2.64144 -3.59226 1.14188e-19)
(3.78977 -1.34214 9.55065e-20)
(3.95169 -1.93773 1.89339e-18)
(3.68537 -2.37267 0)
(3.42822 -2.68759 -3.41536e-18)
(3.17209 -2.90591 -2.60393e-18)
(2.95581 -3.05846 2.93126e-19)
(2.78275 -3.1686 -7.81907e-18)
(2.64815 -3.24923 1.79751e-19)
(2.54639 -3.30463 -2.02371e-19)
(2.47316 -3.33729 3.05198e-18)
(2.42474 -3.34934 -2.3856e-18)
(2.39858 -3.34311 1.70394e-19)
(3.97234 -1.24547 -2.94335e-18)
(4.10439 -1.78964 1.09755e-18)
(3.75055 -2.15645 -6.67025e-18)
(3.41482 -2.45846 3.3962e-18)
(3.09864 -2.68569 0)
(2.83276 -2.85346 0)
(2.62125 -2.97466 4.60266e-18)
(2.4595 -3.05827 7.93676e-18)
(2.34029 -3.10899 -3.54736e-18)
(2.25715 -3.13063 -3.08049e-18)
(2.20476 -3.12703 -2.86846e-18)
(2.17939 -3.1019 0)
(4.19412 -1.06556 6.15869e-21)
(4.33411 -1.6072 4.53271e-18)
(3.87285 -1.89578 9.83567e-18)
(3.44391 -2.19474 0)
(3.06342 -2.44297 6.7845e-18)
(2.74478 -2.6359 0)
(2.49304 -2.77655 1.62131e-19)
(2.3027 -2.86947 -4.21285e-18)
(2.16504 -2.92023 4.13645e-18)
(2.0715 -2.93429 0)
(2.01444 -2.9176 0)
(1.98882 -2.876 -6.5067e-18)
(4.50187 -1.09928 -6.33365e-18)
(4.49346 -1.2941 3.65216e-18)
(3.9602 -1.53897 4.76385e-19)
(3.45562 -1.88103 -8.92182e-18)
(3.03314 -2.17221 -3.33617e-18)
(2.67829 -2.40584 -3.0962e-18)
(2.3948 -2.57643 -5.55839e-18)
(2.179 -2.68699 -1.46897e-17)
(2.0241 -2.74367 -4.04739e-18)
(1.92057 -2.75409 -8.28918e-18)
(1.85865 -2.72708 7.78345e-18)
(1.83203 -2.67106 6.88772e-18)
(3.86022 -0.39442 3.33686e-18)
(3.91903 -0.804784 -1.42677e-18)
(3.52415 -1.1185 3.024e-19)
(3.1582 -1.50917 7.86006e-18)
(2.85394 -1.87281 0)
(2.556 -2.16391 -6.71379e-18)
(2.29046 -2.3746 5.81976e-18)
(2.07361 -2.5108 4.9059e-18)
(1.91214 -2.58093 -1.51267e-17)
(1.80324 -2.59276 8.86892e-18)
(1.73812 -2.5588 -8.29754e-18)
(1.71104 -2.4905 0)
(4.09881 -5.76255 -2.08935e-18)
(3.91664 -6.01805 5.28898e-18)
(3.67076 -6.18283 -2.05184e-18)
(3.38433 -6.24077 -2.19712e-18)
(3.0553 -6.19986 1.80022e-18)
(2.71373 -6.036 -1.76966e-19)
(2.36488 -5.74519 4.12934e-20)
(2.03357 -5.32317 4.64548e-20)
(1.72516 -4.76555 -1.09111e-18)
(1.41602 -4.02215 0)
(1.03426 -3.2305 0)
(0.230938 -2.82143 -7.34889e-19)
(4.38047 -4.79728 3.80819e-20)
(4.26689 -4.98947 4.38958e-19)
(4.10315 -5.15497 -8.8771e-19)
(3.89559 -5.27591 0)
(3.67005 -5.32362 5.17744e-19)
(3.43759 -5.2908 0)
(3.21088 -5.16877 7.86898e-19)
(3.0093 -4.95596 1.99638e-18)
(2.85316 -4.65327 -1.67201e-18)
(2.73668 -4.15161 0)
(2.63133 -3.6047 0)
(2.34775 -3.45137 4.50753e-20)
(3.71916 -4.75808 2.10747e-19)
(3.6342 -4.87028 -2.06854e-19)
(3.53761 -4.94812 3.52742e-19)
(3.43753 -4.98186 0)
(3.33971 -4.96405 -5.71842e-19)
(3.25373 -4.89086 1.89145e-18)
(3.18881 -4.75893 -2.69499e-18)
(3.15749 -4.56979 -3.6969e-18)
(3.17296 -4.3299 2.4977e-18)
(3.23751 -3.96784 0)
(3.30385 -3.55224 4.97056e-19)
(3.2678 -3.51616 1.56444e-19)
(3.4565 -4.41506 5.20766e-19)
(3.40703 -4.48166 -1.31161e-18)
(3.35464 -4.52178 1.41955e-18)
(3.30644 -4.5297 -1.43868e-18)
(3.27076 -4.50207 0)
(3.25494 -4.43763 9.68352e-19)
(3.26683 -4.33697 9.00893e-19)
(3.31614 -4.20297 6.44764e-19)
(3.41448 -4.04393 -1.37033e-18)
(3.57081 -3.8417 0)
(3.79102 -3.50884 -2.80051e-19)
(4.07029 -3.68416 3.89345e-19)
(3.15405 -4.14363 1.61276e-18)
(3.12811 -4.17676 -8.14062e-19)
(3.11082 -4.1878 0)
(3.10364 -4.17651 0)
(3.11719 -4.1414 9.23109e-19)
(3.15509 -4.08407 -8.3006e-19)
(3.22239 -4.00774 -1.34546e-19)
(3.32584 -3.91702 0)
(3.47682 -3.81924 -6.25385e-19)
(3.69051 -3.72259 7.42998e-19)
(3.98642 -3.48531 -6.10389e-19)
(4.41973 -3.79985 -1.32618e-19)
(2.88678 -3.86679 -3.41524e-18)
(2.87974 -3.87385 1.73029e-18)
(2.8869 -3.86558 3.77967e-18)
(2.91341 -3.84191 3.41509e-21)
(2.96252 -3.80399 -4.69859e-18)
(3.03765 -3.75576 -2.05667e-18)
(3.14099 -3.70279 -1.37167e-19)
(3.27637 -3.65334 0)
(3.45386 -3.61687 0)
(3.69312 -3.6033 -6.50791e-19)
(4.03813 -3.49902 -5.37246e-19)
(4.62483 -3.93268 9.49583e-20)
(2.63103 -3.59184 2.14459e-18)
(2.63865 -3.57818 -4.32966e-18)
(2.66535 -3.55302 -1.91154e-18)
(2.71398 -3.51829 -1.20132e-19)
(2.78751 -3.4772 1.93802e-18)
(2.88706 -3.43522 2.00197e-18)
(3.01126 -3.40069 1.18802e-18)
(3.15989 -3.38644 1.18677e-18)
(3.33949 -3.40461 -1.32317e-18)
(3.56896 -3.47377 0)
(3.91329 -3.51319 7.46885e-19)
(4.5622 -3.98873 -2.82195e-19)
(2.3939 -3.32162 0)
(2.41071 -3.28808 2.21729e-18)
(2.44974 -3.24561 0)
(2.51305 -3.19775 -1.2428e-19)
(2.60242 -3.14908 -1.23734e-20)
(2.71648 -3.10658 4.80339e-18)
(2.84958 -3.08231 -4.85434e-18)
(2.99635 -3.09575 0)
(3.15966 -3.16389 -1.51934e-18)
(3.35702 -3.31583 8.82773e-19)
(3.66217 -3.48151 -1.46076e-18)
(4.27499 -4.04013 7.49229e-19)
(2.17863 -3.06143 2.62682e-18)
(2.20113 -3.00728 -2.64692e-18)
(2.24764 -2.9451 -2.69259e-18)
(2.31925 -2.87931 2.67652e-18)
(2.41694 -2.81501 2.6049e-18)
(2.53666 -2.76059 -7.88973e-18)
(2.66694 -2.733 2.58346e-18)
(2.79621 -2.76153 0)
(2.92241 -2.86767 1.43602e-18)
(3.05761 -3.09437 0)
(3.2814 -3.39096 1.96562e-18)
(3.82106 -3.99028 -1.54732e-18)
(1.99075 -2.81616 0)
(2.01736 -2.74045 -6.12648e-18)
(2.06806 -2.6552 -3.23683e-18)
(2.14343 -2.56434 -5.65467e-18)
(2.24391 -2.47274 2.91309e-18)
(2.3622 -2.39069 2.85494e-18)
(2.47897 -2.34247 0)
(2.57672 -2.37126 0)
(2.64724 -2.49898 0)
(2.692 -2.78924 0)
(2.77466 -3.19249 -5.72811e-19)
(3.04425 -3.86028 -7.00489e-20)
(1.83612 -2.5916 3.38823e-18)
(1.86564 -2.49293 3.04608e-18)
(1.91866 -2.37868 1.30441e-17)
(1.99476 -2.25196 3.47446e-18)
(2.09414 -2.11719 1.33784e-17)
(2.20545 -1.98843 -3.33251e-18)
(2.29969 -1.90282 -3.54105e-18)
(2.35596 -1.9196 0)
(2.35537 -2.04725 -3.61358e-18)
(2.28479 -2.37409 -2.05705e-18)
(2.14678 -2.85185 -1.61386e-18)
(1.87991 -3.57594 -9.26862e-26)
(1.71748 -2.39196 0)
(1.74917 -2.26552 0)
(1.80269 -2.11117 -1.48019e-17)
(1.8768 -1.93157 -1.07839e-17)
(1.97215 -1.7327 -3.40194e-18)
(2.0729 -1.53944 0)
(2.13989 -1.41096 3.51355e-18)
(2.14742 -1.41235 0)
(2.07977 -1.52116 -1.01913e-19)
(1.88389 -1.82914 1.93789e-18)
(1.47323 -2.34885 5.39402e-19)
(0.17424 -2.9216 3.72142e-18)
(0.304959 -2.29031 5.97084e-20)
(0.232103 -1.86893 3.83884e-19)
(0.122448 -1.68389 -5.51886e-19)
(-0.106736 -1.85053 1.74104e-19)
(-1.08359 -1.89423 0)
(-2.50613 -2.05519 2.70778e-19)
(-3.2081 -2.97578 0)
(-3.59802 -3.43441 5.95046e-20)
(-4.09858 -3.88294 2.67006e-18)
(-4.53664 -4.11119 -1.40073e-18)
(-5.02331 -4.2212 -3.361e-18)
(-5.4204 -4.21259 2.05809e-18)
(0.655487 -2.80756 4.69735e-19)
(0.0227319 -2.53466 -3.80205e-19)
(-1.01316 -2.78515 2.29679e-19)
(-2.03036 -3.36823 -6.18758e-20)
(-2.8492 -3.72889 -4.11286e-19)
(-3.37933 -3.92012 -9.86156e-20)
(-3.57184 -4.05569 -7.98664e-19)
(-3.70751 -4.19949 -1.27671e-18)
(-3.91537 -4.33075 2.2616e-18)
(-4.1418 -4.41059 -3.93769e-19)
(-4.36833 -4.46254 8.58472e-19)
(-4.59063 -4.45092 6.58567e-19)
(-0.0169543 -3.14687 -3.63307e-19)
(-0.966224 -3.20771 0)
(-1.9287 -3.55288 0)
(-2.74588 -3.80039 -6.42193e-19)
(-3.33444 -3.87786 0)
(-3.68076 -3.85348 -8.10013e-19)
(-3.83911 -3.88625 6.95971e-19)
(-4.00783 -3.88208 1.54539e-18)
(-4.17258 -3.8836 -1.01002e-18)
(-4.33074 -3.86871 -9.63632e-19)
(-4.48384 -3.84058 -1.43825e-18)
(-4.63067 -3.79319 1.30821e-18)
(-0.404962 -3.35009 -1.6076e-18)
(-1.43099 -3.50851 -7.22835e-19)
(-2.31058 -3.72129 1.08512e-18)
(-2.9723 -3.78799 6.08906e-19)
(-3.39012 -3.75808 0)
(-3.64309 -3.70822 -2.90248e-18)
(-3.78366 -3.64963 2.83863e-18)
(-3.91134 -3.61983 0)
(-4.02677 -3.59257 1.68056e-18)
(-4.13541 -3.56626 -2.53772e-18)
(-4.23873 -3.53832 1.59013e-18)
(-4.33618 -3.50412 2.35986e-19)
(-0.927408 -3.44443 1.0035e-18)
(-1.7907 -3.64888 1.33728e-18)
(-2.52719 -3.70843 2.91965e-19)
(-3.04528 -3.67003 0)
(-3.35957 -3.58015 -1.97321e-18)
(-3.54466 -3.48983 3.37746e-18)
(-3.66612 -3.41308 0)
(-3.7748 -3.35302 -1.48482e-18)
(-3.86967 -3.30145 -1.29903e-18)
(-3.95474 -3.25867 2.10328e-18)
(-4.0306 -3.22205 0)
(-4.09677 -3.18869 -1.53183e-18)
(-1.22634 -3.53359 5.63429e-19)
(-1.96853 -3.74404 2.65564e-19)
(-2.5611 -3.6728 -1.11496e-18)
(-2.9993 -3.55755 -4.99555e-18)
(-3.2566 -3.41508 -7.92049e-20)
(-3.41434 -3.28746 4.17481e-18)
(-3.52552 -3.18255 0)
(-3.6185 -3.09756 4.51388e-18)
(-3.69559 -3.02882 -2.5805e-18)
(-3.75936 -2.97563 2.36462e-18)
(-3.81037 -2.93538 1.9362e-19)
(-3.8489 -2.90619 4.15679e-20)
(-1.36332 -3.64549 -7.19686e-19)
(-2.00592 -3.83182 -7.67633e-19)
(-2.51048 -3.66632 0)
(-2.87662 -3.47776 5.28988e-18)
(-3.10386 -3.27804 -7.79502e-18)
(-3.25199 -3.10758 -1.44406e-19)
(-3.35869 -2.96976 -7.62159e-18)
(-3.44221 -2.86038 2.10879e-19)
(-3.50598 -2.77541 -2.89086e-18)
(-3.55216 -2.71237 -2.77139e-18)
(-3.5818 -2.66825 2.70214e-18)
(-3.59564 -2.64137 -2.29127e-18)
(-1.33564 -3.79901 -2.72935e-20)
(-1.93924 -3.95044 -9.68374e-19)
(-2.37662 -3.6839 0)
(-2.69258 -3.4257 3.41131e-18)
(-2.91133 -3.1689 2.45588e-18)
(-3.06394 -2.95219 2.07046e-18)
(-3.17392 -2.77896 -2.23582e-19)
(-3.25419 -2.64439 3.91948e-20)
(-3.30905 -2.54288 -3.28268e-18)
(-3.34101 -2.47009 -2.49184e-19)
(-3.35217 -2.42227 1.79978e-19)
(-3.34494 -2.39693 0)
(-1.25583 -3.96328 1.44327e-18)
(-1.79253 -4.10281 0)
(-2.15988 -3.74802 0)
(-2.46262 -3.41157 -3.39529e-18)
(-2.69026 -3.09456 2.83199e-18)
(-2.8581 -2.8281 -5.3213e-18)
(-2.97912 -2.61628 0)
(-3.06231 -2.45449 3.86796e-18)
(-3.11238 -2.33545 -1.91415e-19)
(-3.13319 -2.25271 3.07578e-18)
(-3.12852 -2.20089 -3.12177e-18)
(-3.10234 -2.17642 5.78399e-18)
(-1.06084 -4.19749 4.65356e-18)
(-1.60848 -4.33261 -1.51714e-18)
(-1.89815 -3.8706 -5.18295e-18)
(-2.19797 -3.44021 -8.1881e-18)
(-2.44668 -3.05867 0)
(-2.63973 -2.73931 5.34404e-18)
(-2.7802 -2.48716 -9.85589e-18)
(-2.87265 -2.29668 4.16182e-18)
(-2.92267 -2.15915 4.13054e-18)
(-2.93576 -2.06596 0)
(-2.91789 -2.00943 -3.71727e-18)
(-2.87517 -1.98471 -6.00208e-18)
(-1.09853 -4.50281 -6.39209e-18)
(-1.29437 -4.49208 1.63696e-18)
(-1.54041 -3.95779 4.68642e-18)
(-1.88328 -3.45175 3.93641e-18)
(-2.17508 -3.02808 1.63986e-20)
(-2.40893 -2.67235 -9.35773e-18)
(-2.57936 -2.38833 1.06716e-17)
(-2.68943 -2.17231 1.93274e-17)
(-2.74529 -2.01749 -1.282e-17)
(-2.75463 -1.91425 -8.27621e-18)
(-2.7264 -1.85282 7.26703e-18)
(-2.66908 -1.82702 0)
(-0.393466 -3.86011 5.23096e-18)
(-0.804327 -3.918 1.83062e-18)
(-1.11911 -3.52198 2.07521e-18)
(-1.51075 -3.15477 8.30725e-18)
(-1.87509 -2.84922 0)
(-2.1664 -2.55011 6.39582e-18)
(-2.37696 -2.28385 -1.21649e-17)
(-2.5127 -2.06668 -5.2056e-18)
(-2.58193 -1.90523 -4.9733e-18)
(-2.59258 -1.79653 8.85072e-18)
(-2.55733 -1.73182 4.55496e-18)
(-2.4877 -1.70548 1.24269e-17)
(-5.77341 -4.10751 7.06954e-19)
(-6.02922 -3.92511 9.12872e-20)
(-6.19394 -3.67876 1.61508e-18)
(-6.25169 -3.39168 -4.42425e-18)
(-6.21015 -3.06183 1.74036e-18)
(-6.04544 -2.71935 0)
(-5.75352 -2.36956 -3.4274e-19)
(-5.33019 -2.03732 2.19188e-19)
(-4.7712 -1.72808 0)
(-4.0264 -1.41831 3.57371e-20)
(-3.23272 -1.0362 0)
(-2.82306 -0.233769 0)
(-4.80602 -4.38848 -8.90372e-19)
(-4.99835 -4.27489 1.34279e-18)
(-5.16382 -4.111 5.94572e-19)
(-5.28443 -3.90327 -1.44484e-19)
(-5.33163 -3.67746 0)
(-5.29812 -3.44463 0)
(-5.17527 -3.21745 1.0973e-18)
(-4.96151 -3.0153 -1.22243e-18)
(-4.65774 -2.85851 0)
(-4.15512 -2.74149 6.29439e-19)
(-3.60652 -2.63599 -7.03e-20)
(-3.45203 -2.35294 -1.16869e-18)
(-4.76631 -3.72552 6.33008e-19)
(-4.87821 -3.64085 -9.35358e-19)
(-4.95563 -3.54453 0)
(-4.98883 -3.44466 -1.15597e-18)
(-4.9704 -3.34697 -1.47446e-18)
(-4.89653 -3.26099 3.46677e-18)
(-4.76385 -3.19596 -3.36996e-18)
(-4.57389 -3.16438 0)
(-4.33309 -3.17947 0)
(-3.97015 -3.24361 0)
(-3.55342 -3.31009 -5.66369e-19)
(-3.51652 -3.27383 1.16649e-19)
(-4.42197 -3.46178 -5.17653e-19)
(-4.48813 -3.41281 -2.87638e-19)
(-4.52767 -3.36093 0)
(-4.53497 -3.3132 -2.46565e-19)
(-4.50666 -3.27795 0)
(-4.44153 -3.26242 0)
(-4.34017 -3.27444 9.41629e-19)
(-4.20546 -3.32372 -1.26788e-18)
(-4.0457 -3.42193 1.40388e-18)
(-3.84283 -3.578 0)
(-3.50944 -3.79806 -3.25138e-19)
(-3.68409 -4.07758 -3.76023e-19)
(-4.14934 -3.15796 3.38743e-18)
(-4.18175 -3.13289 -8.03225e-19)
(-4.19215 -3.11631 1.44799e-18)
(-4.18008 -3.10977 7.47659e-19)
(-4.14423 -3.12398 -2.59206e-18)
(-4.08617 -3.16245 0)
(-4.00918 -3.2301 -1.05809e-18)
(-3.91786 -3.33371 0)
(-3.81959 -3.48465 0)
(-3.72256 -3.6982 7.40552e-19)
(-3.48535 -3.99364 6.08206e-20)
(-3.7993 -4.42694 4.21499e-19)
(-3.87085 -2.88932 -1.50387e-18)
(-3.87719 -2.88305 -1.16822e-19)
(-3.86809 -2.89123 0)
(-3.84358 -2.91871 0)
(-3.80489 -2.96873 -2.99123e-18)
(-3.75596 -3.04465 1.90675e-18)
(-3.70239 -3.14855 2.04643e-18)
(-3.65252 -3.28421 1.12191e-18)
(-3.61583 -3.4617 -2.70425e-18)
(-3.60229 -3.70069 -6.49287e-19)
(-3.4985 -4.0453 0)
(-3.93179 -4.63173 3.57605e-19)
(-3.59427 -2.63193 -4.43145e-18)
(-3.57969 -2.64062 1.83487e-18)
(-3.55358 -2.66844 2.03714e-18)
(-3.51798 -2.71822 1.14136e-19)
(-3.4761 -2.79291 -2.51101e-19)
(-3.43344 -2.89346 -2.22793e-18)
(-3.3984 -3.01841 -3.36631e-18)
(-3.3839 -3.16741 -1.2599e-18)
(-3.40208 -3.347 1.23523e-18)
(-3.47156 -3.57607 0)
(-3.51157 -3.91988 1.29119e-18)
(-3.98756 -4.56833 -3.4679e-19)
(-3.32239 -2.39328 4.68548e-18)
(-3.28777 -2.41127 -2.61462e-18)
(-3.24427 -2.45155 -2.41103e-18)
(-3.19547 -2.51618 -4.43754e-18)
(-3.146 -2.60686 4.46935e-18)
(-3.10284 -2.72212 -1.52749e-19)
(-3.07815 -2.8561 7.24699e-18)
(-3.09151 -3.00332 1.20137e-18)
(-3.15992 -3.16657 1.51723e-18)
(-3.31254 -3.36343 0)
(-3.47925 -3.66779 -8.93203e-19)
(-4.03848 -4.27917 -4.29051e-19)
(-3.06064 -2.17663 0)
(-3.00524 -2.2004 2.49529e-18)
(-2.94195 -2.24824 2.45573e-18)
(-2.87516 -2.32126 -2.56264e-18)
(-2.81003 -2.4204 -1.1145e-19)
(-2.75494 -2.54145 -2.75069e-18)
(-2.72699 -2.67271 -2.58026e-18)
(-2.75564 -2.80241 0)
(-2.86231 -2.92851 -1.43444e-18)
(-3.09003 -3.06296 -9.59989e-19)
(-3.38786 -3.28578 3.14343e-18)
(-3.98855 -3.82381 -7.12151e-19)
(-2.81391 -1.98766 0)
(-2.7369 -2.01555 0)
(-2.65045 -2.06762 0)
(-2.55853 -2.14446 -8.85774e-18)
(-2.46605 -2.24646 5.78637e-18)
(-2.38326 -2.36619 5.80215e-18)
(-2.33476 -2.48391 0)
(-2.36387 -2.58205 -3.29151e-18)
(-2.49232 -2.65234 0)
(-2.78396 -2.69617 -2.05105e-18)
(-3.18866 -2.77757 -5.72353e-19)
(-3.85801 -3.04426 -9.75819e-19)
(-2.58819 -1.83219 0)
(-2.48813 -1.863 0)
(-2.37259 -1.91741 6.74325e-18)
(-2.24475 -1.995 9.50339e-18)
(-2.10904 -2.09594 3.28271e-19)
(-1.97944 -2.20872 3.45612e-18)
(-1.89366 -2.30382 -1.76633e-18)
(-1.911 -2.36035 4.98471e-18)
(-2.03961 -2.35939 3.61224e-18)
(-2.36812 -2.28767 1.91283e-18)
(-2.8473 -2.14803 -1.61315e-18)
(-3.57378 -1.87735 -1.63208e-18)
(-2.38768 -1.71302 0)
(-2.25975 -1.74598 0)
(-2.10404 -1.80089 -7.14116e-18)
(-1.92325 -1.87646 3.90654e-18)
(-1.72333 -1.97341 -3.3929e-18)
(-1.52915 -2.07558 -3.48248e-18)
(-1.40083 -2.14332 3.67491e-18)
(-1.40305 -2.15095 0)
(-1.51301 -2.08274 -3.30812e-18)
(-1.82293 -1.88545 -1.97225e-18)
(-2.34394 -1.47286 2.04075e-18)
(-2.91909 -0.169827 -3.61916e-18)
(-2.28951 -0.303295 5.70796e-20)
(-1.86922 -0.230138 0)
(-1.68254 -0.121953 0)
(-1.84753 0.102854 1.07273e-18)
(-1.89653 1.07046 -1.07127e-18)
(-2.04328 2.49358 0)
(-2.9666 3.20677 0)
(-3.42536 3.593 6.09996e-20)
(-3.87513 4.09489 3.33534e-19)
(-4.10365 4.53156 -9.44889e-19)
(-4.21435 5.01879 -3.52046e-18)
(-4.20593 5.41534 1.35081e-18)
(-2.80642 -0.655147 -6.08068e-19)
(-2.53471 -0.0275967 0)
(-2.78061 1.00525 0)
(-3.36126 2.02387 -3.61285e-19)
(-3.72545 2.8442 6.93848e-19)
(-3.91564 3.37782 -1.59914e-18)
(-4.05171 3.57159 1.16282e-18)
(-4.19448 3.70543 6.96805e-19)
(-4.32583 3.91326 1.08361e-19)
(-4.40535 4.13859 7.94282e-19)
(-4.45758 4.36482 0)
(-4.44603 4.58652 1.84097e-19)
(-3.14639 0.01218 3.60818e-19)
(-3.20523 0.96014 0)
(-3.55018 1.92282 0)
(-3.7977 2.741 -3.89762e-19)
(-3.87674 3.33039 3.12791e-19)
(-3.85108 3.6784 -1.16239e-18)
(-3.88312 3.83749 0)
(-3.87851 4.00537 -2.24986e-18)
(-3.87969 4.16988 2.36368e-18)
(-3.86435 4.32739 -5.16594e-19)
(-3.83594 4.48011 -1.01608e-18)
(-3.78827 4.62653 1.31859e-18)
(-3.35068 0.40008 -8.07771e-19)
(-3.50763 1.42518 7.23644e-19)
(-3.72069 2.30539 0)
(-3.78736 2.96845 6.07652e-19)
(-3.7577 3.38692 -5.89444e-19)
(-3.70727 3.64075 9.99279e-19)
(-3.64797 3.78136 0)
(-3.61729 3.90834 -1.41699e-18)
(-3.58945 4.02331 -2.89895e-18)
(-3.56257 4.1314 1.83287e-18)
(-3.53418 4.23434 1.59779e-18)
(-3.49959 4.3315 -3.25049e-18)
(-3.44481 0.921559 5.02862e-19)
(-3.6487 1.78496 -5.78526e-19)
(-3.70873 2.52247 1.25183e-18)
(-3.67036 3.04174 0)
(-3.58035 3.35654 -4.14426e-18)
(-3.4895 3.54186 3.8157e-18)
(-3.41208 3.66294 1.74888e-18)
(-3.35136 3.77111 1.17502e-18)
(-3.29914 3.86557 0)
(-3.25573 3.95025 0)
(-3.21854 4.02585 0)
(-3.18465 4.09187 -4.27779e-19)
(-3.53424 1.22138 1.21983e-18)
(-3.74481 1.96342 0)
(-3.67403 2.557 -1.11669e-18)
(-3.55863 2.99599 2.58363e-18)
(-3.41593 3.25351 2.17391e-18)
(-3.28786 3.4111 -3.90143e-18)
(-3.1824 3.52184 1.84004e-18)
(-3.09682 3.6144 -6.12299e-18)
(-3.02745 3.69114 3.33134e-20)
(-2.97362 3.75466 -1.67286e-19)
(-2.93274 3.80557 1.93991e-19)
(-2.90291 3.84411 5.80023e-18)
(-3.65191 1.35473 -2.76861e-18)
(-3.83292 2.00059 1.90031e-18)
(-3.66803 2.50655 -2.65622e-18)
(-3.4795 2.87343 -2.51152e-18)
(-3.27964 3.10071 -4.9263e-18)
(-3.10886 3.24852 -2.49783e-18)
(-2.9706 3.35479 -3.70013e-18)
(-2.86071 3.43796 6.24555e-18)
(-2.77515 3.5015 0)
(-2.7115 3.54758 5.21703e-18)
(-2.66674 3.57732 -7.22583e-18)
(-2.63913 3.59144 2.43568e-18)
(-3.79061 1.33958 -1.52195e-18)
(-3.95234 1.93674 -3.0516e-18)
(-3.68592 2.3736 4.52647e-18)
(-3.42822 2.68972 0)
(-3.17139 2.90825 -2.95983e-18)
(-2.95448 3.06045 4.41313e-18)
(-2.78091 3.17002 -2.28564e-19)
(-2.64591 3.25002 -3.83255e-20)
(-2.54386 3.30479 -3.20938e-18)
(-2.47047 3.33685 -5.8071e-18)
(-2.42199 3.34834 2.55436e-18)
(-2.3959 3.34158 -2.52081e-18)
(-3.97302 1.24373 1.79584e-18)
(-4.10516 1.78897 0)
(-3.75132 2.15723 0)
(-3.41505 2.46005 0)
(-3.0981 2.68736 2.84064e-18)
(-2.83153 2.85474 0)
(-2.61946 2.97539 -1.91482e-19)
(-2.45726 3.05841 7.81502e-18)
(-2.33772 3.10855 1.16659e-19)
(-2.25438 3.12964 3.08643e-18)
(-2.20191 3.12553 -2.98103e-18)
(-2.17658 3.09994 8.6347e-18)
(-4.19518 1.06449 6.25227e-21)
(-4.33536 1.60694 8.21417e-18)
(-3.87404 1.89647 -2.40566e-18)
(-3.44461 2.19585 0)
(-3.06333 2.44404 0)
(-2.74395 2.63659 0)
(-2.49158 2.77673 0)
(-2.30072 2.86911 4.2923e-18)
(-2.16269 2.91938 -1.57926e-17)
(-2.0689 2.93297 -7.45145e-18)
(-2.01173 2.91587 6.9657e-18)
(-1.9861 2.87388 3.6009e-18)
(-4.50277 1.09913 -6.38375e-18)
(-4.49483 1.29427 -5.14537e-18)
(-3.9618 1.53947 -2.7485e-18)
(-3.45686 1.8817 0)
(-3.03365 2.17272 0)
(-2.67806 2.406 6.35041e-18)
(-2.3939 2.57615 -1.09577e-17)
(-2.17752 2.68627 1.95868e-17)
(-2.02217 2.74257 1.30491e-17)
(-1.91834 2.75263 7.79222e-18)
(-1.85627 2.72531 -7.2935e-18)
(-1.82963 2.66903 4.97042e-19)
(-3.86187 0.395285 -1.75989e-18)
(-3.92072 0.805548 0)
(-3.52591 1.11883 4.00818e-18)
(-3.1596 1.50933 -1.23723e-17)
(-2.85475 1.87277 1.114e-17)
(-2.55622 2.16358 3.04813e-19)
(-2.2901 2.37393 5.82325e-18)